 Gaussian 16, Revision A.03,

 -------------------------------------------------------
 # opt=CalcFc B3LYP/6-31G** SCRF=(Solvent=water) scf=xqc
 -------------------------------------------------------

 ----------------------------------
 QHJABUZHRJTCAR-UHFFFAOYSA-N_conf_1
 ----------------------------------
 Symbolic Z-matrix:
 Charge =  0 Multiplicity = 1

 SCF Done:  E(RB3LYP) =  -269.158336419     A.U. after   10 cycles
 SCF Done:  E(RB3LYP) =  -269.160829622     A.U. after    9 cycles
 SCF Done:  E(RB3LYP) =  -269.160909054     A.U. after    9 cycles
 SCF Done:  E(RB3LYP) =  -269.160909587     A.U. after    7 cycles
 Optimization completed.
    -- Stationary point found.
 Normal termination of Gaussian 16 at Thu Jul 11 20:35:24 2024.

 ----------------------------------------------------------------------
 # freq B3LYP/6-31G** SCRF=(Solvent=water) volume NMR pop=NPA density=c
 urrent Geom=AllCheck Guess=Read
 ----------------------------------------------------------------------

 Structure from the checkpoint file:  "QHJABUZHRJTCAR-UHFFFAOYSA-N_conf_1_1.chk"
 ----------------------------------
 QHJABUZHRJTCAR-UHFFFAOYSA-N_conf_1
 ----------------------------------
 Charge =  0 Multiplicity = 1

 SCF Done:  E(RB3LYP) =  -269.160909587     A.U. after    1 cycles

      1  N    Isotropic =   233.3317   Anisotropy =    32.2685

      2  C    Isotropic =   148.6573   Anisotropy =    35.4096

      3  C    Isotropic =   155.6686   Anisotropy =    34.1030

      4  C    Isotropic =   139.9948   Anisotropy =    49.6500

      5  N    Isotropic =   222.4047   Anisotropy =    41.6905

      6  C    Isotropic =   154.4065   Anisotropy =    54.5350

      7  H    Isotropic =    31.0479   Anisotropy =    15.2966

      8  H    Isotropic =    31.5529   Anisotropy =    12.3285

      9  H    Isotropic =    28.8485   Anisotropy =     6.4974

     10  H    Isotropic =    29.2544   Anisotropy =     5.6369

     11  H    Isotropic =    30.2957   Anisotropy =     4.6417

     12  H    Isotropic =    30.2312   Anisotropy =     4.7688

     13  H    Isotropic =    29.4928   Anisotropy =     4.6304

     14  H    Isotropic =    29.2820   Anisotropy =     5.2478

     15  H    Isotropic =    31.6985   Anisotropy =    11.7754

     16  H    Isotropic =    29.2514   Anisotropy =     9.7062

     17  H    Isotropic =    29.6391   Anisotropy =     8.4755

     18  H    Isotropic =    29.4358   Anisotropy =     8.8935

  Exact polarizability:  84.205   0.225  69.371   0.579   0.706  66.100
 Approx polarizability:  80.535   0.155  76.455  -0.156   0.852  73.378

                      1                      2                      3
                      A                      A                      A
 Frequencies --     77.1305               102.5059               138.3410
 Red. masses --      2.8359                 1.6862                 2.9896
 Frc consts  --      0.0099                 0.0104                 0.0337
 IR Inten    --      5.0610                10.6122                 0.5375

                      4                      5                      6
                      A                      A                      A
 Frequencies --    150.5557               253.2969               263.8613
 Red. masses --      2.2689                 1.1307                 1.1770
 Frc consts  --      0.0303                 0.0427                 0.0483
 IR Inten    --      1.4607                22.1112                34.1790

                      7                      8                      9
                      A                      A                      A
 Frequencies --    329.8316               376.4592               502.4430
 Red. masses --      2.8218                 3.9689                 2.8690
 Frc consts  --      0.1809                 0.3314                 0.4267
 IR Inten    --     22.2774                 1.3519                12.1741

                     10                     11                     12
                      A                      A                      A
 Frequencies --    773.0115               808.4585               866.0454
 Red. masses --      1.0798                 1.2925                 1.2180
 Frc consts  --      0.3802                 0.4977                 0.5382
 IR Inten    --      3.9411               157.4690                63.6822

                     13                     14                     15
                      A                      A                      A
 Frequencies --    924.2034               964.0035              1004.0784
 Red. masses --      1.3395                 2.2248                 1.8110
 Frc consts  --      0.6741                 1.2181                 1.0757
 IR Inten    --    133.8815                10.6372                 6.9831

                     16                     17                     18
                      A                      A                      A
 Frequencies --   1046.1194              1074.7489              1103.4655
 Red. masses --      2.9805                 1.9565                 1.5315
 Frc consts  --      1.9218                 1.3315                 1.0987
 IR Inten    --      4.8937                 4.0227                26.8223

                     19                     20                     21
                      A                      A                      A
 Frequencies --   1134.9761              1160.3503              1193.9237
 Red. masses --      1.9880                 1.9099                 1.6964
 Frc consts  --      1.5088                 1.5151                 1.4247
 IR Inten    --     18.1794                34.0006                11.6925

                     22                     23                     24
                      A                      A                      A
 Frequencies --   1225.1815              1288.4098              1312.0300
 Red. masses --      1.5985                 1.4598                 1.2601
 Frc consts  --      1.4137                 1.4277                 1.2780
 IR Inten    --     11.1046                 0.5569                 6.7733

                     25                     26                     27
                      A                      A                      A
 Frequencies --   1320.5319              1347.1433              1411.1399
 Red. masses --      1.0826                 1.2109                 1.3907
 Frc consts  --      1.1123                 1.2947                 1.6316
 IR Inten    --      0.9411                 0.8731                 6.2460

                     28                     29                     30
                      A                      A                      A
 Frequencies --   1440.2416              1465.3664              1488.0725
 Red. masses --      1.5076                 1.1822                 1.2102
 Frc consts  --      1.8425                 1.4957                 1.5789
 IR Inten    --     32.8867                 0.9229                16.8930

                     31                     32                     33
                      A                      A                      A
 Frequencies --   1494.6133              1497.5000              1520.7854
 Red. masses --      1.0728                 1.0770                 1.0691
 Frc consts  --      1.4119                 1.4230                 1.4568
 IR Inten    --      4.8516                 2.6291                17.2726

                     34                     35                     36
                      A                      A                      A
 Frequencies --   1523.4146              1533.3924              1656.3547
 Red. masses --      1.0682                 1.0920                 1.0870
 Frc consts  --      1.4607                 1.5128                 1.7570
 IR Inten    --      2.5213                 0.0746                34.6944

                     37                     38                     39
                      A                      A                      A
 Frequencies --   2919.4363              2952.9059              2956.7396
 Red. masses --      1.0728                 1.0588                 1.0724
 Frc consts  --      5.3874                 5.4395                 5.5237
 IR Inten    --    127.7072               140.6220               120.0426

                     40                     41                     42
                      A                      A                      A
 Frequencies --   3024.5976              3031.4313              3047.8622
 Red. masses --      1.0604                 1.0851                 1.0893
 Frc consts  --      5.7156                 5.8748                 5.9622
 IR Inten    --     39.0859                58.0484                29.7938

                     43                     44                     45
                      A                      A                      A
 Frequencies --   3061.5958              3071.3361              3111.0517
 Red. masses --      1.0757                 1.1039                 1.1019
 Frc consts  --      5.9407                 6.1353                 6.2835
 IR Inten    --     70.9694               136.9917                51.6045

                     46                     47                     48
                      A                      A                      A
 Frequencies --   3476.1769              3498.8480              3553.9102
 Red. masses --      1.0510                 1.0740                 1.0912
 Frc consts  --      7.4829                 7.7468                 8.1203
 IR Inten    --      1.7917                 0.7653                 0.1207

 - Thermochemistry -
 -------------------
 Temperature   298.150 Kelvin.  Pressure   1.00000 Atm.
 Atom     1 has atomic number  7 and mass  14.00307

 Molecular mass:    88.10005 amu.
 Principal axes and moments of inertia in atomic units:
                           1         2         3
     Eigenvalues --   109.633991541.084971596.28495
           X            0.99997   0.00169   0.00726
           Y           -0.00162   0.99995  -0.00961
           Z           -0.00728   0.00960   0.99993
 This molecule is an asymmetric top.
 Rotational symmetry number  1.
 Rotational temperatures (Kelvin)      0.79003     0.05620     0.05426
 Rotational constants (GHZ):          16.46151     1.17108     1.13059
 Zero-point vibrational energy     439495.3 (Joules/Mol)
                                  105.04190 (Kcal/Mol)
 Warning -- explicit consideration of   9 degrees of freedom as
           vibrations may cause significant error
 Vibrational temperatures:    110.97   147.48   199.04   216.62   364.44
          (Kelvin)            379.64   474.55   541.64   722.90  1112.19
                             1163.19  1246.05  1329.72  1386.99  1444.64
                             1505.13  1546.32  1587.64  1632.98  1669.49
                             1717.79  1762.76  1853.73  1887.72  1899.95
                             1938.24  2030.32  2072.19  2108.34  2141.00
                             2150.42  2154.57  2188.07  2191.85  2206.21
                             2383.12  4200.42  4248.57  4254.09  4351.72
                             4361.55  4385.19  4404.95  4418.97  4476.11
                             5001.44  5034.06  5113.28

 Zero-point correction=                           0.167395 (Hartree/Particle)
 Thermal correction to Energy=                    0.175532
 Thermal correction to Enthalpy=                  0.176476
 Thermal correction to Gibbs Free Energy=         0.135076
 Sum of electronic and zero-point Energies=           -268.993515
 Sum of electronic and thermal Energies=              -268.985378
 Sum of electronic and thermal Enthalpies=            -268.984434
 Sum of electronic and thermal Free Energies=         -269.025833

                     E (Thermal)             CV                S
                      KCal/Mol        Cal/Mol-Kelvin    Cal/Mol-Kelvin
 Total                  110.148             27.817             87.133
 Electronic               0.000              0.000              0.000
 Translational            0.889              2.981             39.340
 Rotational               0.889              2.981             27.092
 Vibrational            108.370             21.856             20.701
 Vibration     1          0.599              1.964              3.963
 Vibration     2          0.605              1.947              3.406
 Vibration     3          0.614              1.915              2.827
 Vibration     4          0.618              1.902              2.665
 Vibration     5          0.664              1.757              1.708
 Vibration     6          0.670              1.739              1.636
 Vibration     7          0.713              1.616              1.261
 Vibration     8          0.747              1.520              1.053
 Vibration     9          0.858              1.245              0.652

 Optimization completed.
    -- Stationary point found.
 Normal termination of Gaussian 16 at Thu Jul 11 20:46:01 2024.
 Gaussian 16:  EM64L-G16RevA.03 25-Dec-2016

 ----------------------------------------------------------------------
 # TD(NStates=10, Root=1) B3LYP/6-31G** SCRF=(Solvent=water) volume pop
 =NPA density=current Geom=AllCheck Guess=Read
 ----------------------------------------------------------------------

 Structure from the checkpoint file:  "QHJABUZHRJTCAR-UHFFFAOYSA-N_conf_1_2.chk"
 ----------------------------------
 QHJABUZHRJTCAR-UHFFFAOYSA-N_conf_1
 ----------------------------------
 Charge =  0 Multiplicity = 1

                         Standard orientation:
 ---------------------------------------------------------------------
 Center     Atomic      Atomic             Coordinates (Angstroms)
 Number     Number       Type             X           Y           Z
 ---------------------------------------------------------------------
      1          7           0       -3.110440   -0.273368    0.067067
      2          6           0       -1.869706    0.517056    0.023805
      3          6           0       -0.644870   -0.398888    0.002637
      4          6           0        0.676930    0.369672   -0.002984
      5          7           0        1.822363   -0.539795   -0.065307
      6          6           0        3.102202    0.164677   -0.025270
      7          1           0       -3.906187    0.361558    0.097444
      8          1           0       -3.207690   -0.776253   -0.814231
      9          1           0       -1.818343    1.206307   -0.836957
     10          1           0       -1.840535    1.143605    0.924199
     11          1           0       -0.685626   -1.062112    0.877073
     12          1           0       -0.682500   -1.045127   -0.884467
     13          1           0        0.720096    1.023631   -0.885031
     14          1           0        0.718080    1.039728    0.877910
     15          1           0        1.775200   -1.165904    0.736753
     16          1           0        3.921526   -0.559975    0.001490
     17          1           0        3.217799    0.767270   -0.933628
     18          1           0        3.217376    0.844313    0.838000
 ---------------------------------------------------------------------

 SCF Done:  E(RB3LYP) =  -269.160909587     A.U. after    1 cycles

 Excitation energies and oscillator strengths:

 Excited State   1:      Singlet-A      7.2209 eV  171.70 nm  f=0.0190  <S**2>=0.000
      25 -> 26         0.23607
      25 -> 27         0.65831
 This state for optimization and/or second-order correction.
 Total Energy, E(TD-HF/TD-DFT) =  -268.895547343
 Copying the excited state density for this state as the 1-particle RhoCI density.

 Excited State   2:      Singlet-A      7.4894 eV  165.55 nm  f=0.0131  <S**2>=0.000
      24 -> 26         0.65296
      24 -> 27        -0.21802
      25 -> 26        -0.11553

 Excited State   3:      Singlet-A      7.7432 eV  160.12 nm  f=0.0095  <S**2>=0.000
      24 -> 26         0.11294
      25 -> 26         0.63805
      25 -> 27        -0.20599
      25 -> 28         0.17836

 Excited State   4:      Singlet-A      8.2143 eV  150.94 nm  f=0.0039  <S**2>=0.000
      24 -> 26         0.23847
      24 -> 27         0.62889
      24 -> 28         0.15983
      24 -> 29        -0.10045

 Excited State   5:      Singlet-A      8.2514 eV  150.26 nm  f=0.0555  <S**2>=0.000
      25 -> 28         0.33713
      25 -> 29         0.59059

 Excited State   6:      Singlet-A      8.4237 eV  147.19 nm  f=0.0217  <S**2>=0.000
      25 -> 26        -0.11023
      25 -> 27         0.10420
      25 -> 28         0.57450
      25 -> 29        -0.36870

 Excited State   7:      Singlet-A      8.7718 eV  141.34 nm  f=0.0533  <S**2>=0.000
      24 -> 28         0.19133
      24 -> 30        -0.18185
      25 -> 30         0.63020

 Excited State   8:      Singlet-A      8.7980 eV  140.92 nm  f=0.0679  <S**2>=0.000
      24 -> 27        -0.18203
      24 -> 28         0.62845
      25 -> 30        -0.22017

 Excited State   9:      Singlet-A      8.8699 eV  139.78 nm  f=0.0674  <S**2>=0.000
      24 -> 28         0.11226
      24 -> 30         0.64646
      24 -> 32        -0.10202
      25 -> 30         0.14814

 Excited State  10:      Singlet-A      9.1070 eV  136.14 nm  f=0.0347  <S**2>=0.000
      24 -> 29         0.65938
      24 -> 31        -0.10945
      25 -> 31         0.14442

 The electronic state is 1-A.
 Alpha  occ. eigenvalues --  -14.31449 -14.30926 -10.20293 -10.20150 -10.19703
 Alpha  occ. eigenvalues --  -10.17594  -0.89547  -0.87313  -0.75484  -0.67118
 Alpha  occ. eigenvalues --   -0.61821  -0.58406  -0.49003  -0.46899  -0.46203
 Alpha  occ. eigenvalues --   -0.43594  -0.41779  -0.40955  -0.37795  -0.36515
 Alpha  occ. eigenvalues --   -0.34175  -0.33343  -0.32891  -0.23700  -0.22125
 Alpha virt. eigenvalues --    0.08898   0.09183   0.12153   0.12591   0.13379
 Alpha virt. eigenvalues --    0.15782   0.16732   0.17654   0.18721   0.19373
 Alpha virt. eigenvalues --    0.20189   0.20890   0.22459   0.23660   0.25377

 Mulliken charges:
               1
     1  N   -0.643000
     2  C   -0.052354
     3  C   -0.176785
     4  C   -0.038570
     5  N   -0.087147
     6  C   -0.170840
     7  H    0.252829
     8  H    0.250659
     9  H    0.086215
    10  H    0.098646
    11  H    0.052426
    12  H    0.099003
    13  H    0.085406
    14  H    0.063282
    15  H   -0.077383
    16  H    0.055540
    17  H    0.097178
    18  H    0.104895
 Sum of Mulliken charges =  -0.00000

 Dipole moment (field-independent basis, Debye):
    X=              0.0219    Y=              2.0984    Z=             -2.5223  Tot=              3.2811
 Quadrupole moment (field-independent basis, Debye-Ang):
   XX=            -37.1771   YY=            -42.7152   ZZ=            -43.0682
   XY=             -1.2010   XZ=              2.8495   YZ=              3.0949

 Summary of Natural Population Analysis:

                                       Natural Population
                Natural  -----------------------------------------------
    Atom  No    Charge         Core      Valence    Rydberg      Total
 -----------------------------------------------------------------------
      N    1   -0.92625      1.99968     5.91177    0.01480     7.92625
      C    2   -0.26438      1.99935     4.25037    0.01466     6.26438
      C    3   -0.50706      1.99932     4.48958    0.01816     6.50706
      C    4   -0.35996      1.99932     4.33646    0.02418     6.35996
      N    5   -0.20681      1.99933     5.18900    0.01847     7.20681
      C    6   -0.59336      1.99947     4.56895    0.02494     6.59336
      H    7    0.39148      0.00000     0.60584    0.00268     0.60852
      H    8    0.38408      0.00000     0.61300    0.00292     0.61592
      H    9    0.20489      0.00000     0.79235    0.00276     0.79511
      H   10    0.22006      0.00000     0.77544    0.00450     0.77994
      H   11    0.20482      0.00000     0.77208    0.02311     0.79518
      H   12    0.23476      0.00000     0.75964    0.00560     0.76524
      H   13    0.22179      0.00000     0.75486    0.02336     0.77821
      H   14    0.21317      0.00000     0.74594    0.04089     0.78683
      H   15    0.13712      0.00000     0.75774    0.10514     0.86288
      H   16    0.19269      0.00000     0.78058    0.02673     0.80731
      H   17    0.21854      0.00000     0.76063    0.02082     0.78146
      H   18    0.23442      0.00000     0.73600    0.02957     0.76558
 =======================================================================
   * Total *   -0.00000     11.99648    37.60024    0.40328    50.00000

 1\1\GINC-CN33\SP\RB3LYP TD-FC\6-31G(d,p)\C4H12N2\QDUEZ\11-Jul-2024\0\\
 # TD(NStates=10, Root=1) B3LYP/6-31G** SCRF=(Solvent=water) volume pop
 =NPA density=current Geom=AllCheck Guess=Read\\QHJABUZHRJTCAR-UHFFFAOY
 SA-N_conf_1\\0,1\N,0,-3.1508694841,0.3003538996,0.5509227497\C,0,-1.94
 61415051,-0.4241779126,0.115324678\C,0,-0.6977927402,0.4397511207,0.30
 20761341\C,0,0.582651538,-0.2487989326,-0.171455467\N,0,1.7579860779,0
 .5921081112,0.0619813767\C,0,2.9928427301,-0.0206988166,-0.4232694071\
 H,0,-3.965687648,-0.2915783428,0.3994155453\H,0,-3.1048158287,0.432427

 Normal termination of Gaussian 16 at Thu Jul 11 20:57:48 2024.
