 Gaussian 16, Revision A.03,

 -------------------------------------------------------
 # opt=CalcFc B3LYP/6-31G** SCRF=(Solvent=water) scf=xqc
 -------------------------------------------------------

 ----------------------------------
 QHJABUZHRJTCAR-UHFFFAOYSA-N_conf_0
 ----------------------------------
 Symbolic Z-matrix:
 Charge =  0 Multiplicity = 1

 SCF Done:  E(RB3LYP) =  -269.157846372     A.U. after   11 cycles
 SCF Done:  E(RB3LYP) =  -269.160189782     A.U. after    9 cycles
 SCF Done:  E(RB3LYP) =  -269.160333759     A.U. after    9 cycles
 SCF Done:  E(RB3LYP) =  -269.160339629     A.U. after    8 cycles
 SCF Done:  E(RB3LYP) =  -269.160339716     A.U. after    7 cycles
 Optimization completed.
    -- Stationary point found.
 Normal termination of Gaussian 16 at Thu Jul 11 20:37:37 2024.

 ----------------------------------------------------------------------
 # freq B3LYP/6-31G** SCRF=(Solvent=water) volume NMR pop=NPA density=c
 urrent Geom=AllCheck Guess=Read
 ----------------------------------------------------------------------

 Structure from the checkpoint file:  "QHJABUZHRJTCAR-UHFFFAOYSA-N_conf_0_1.chk"
 ----------------------------------
 QHJABUZHRJTCAR-UHFFFAOYSA-N_conf_0
 ----------------------------------
 Charge =  0 Multiplicity = 1

 SCF Done:  E(RB3LYP) =  -269.160339716     A.U. after    1 cycles

      1  N    Isotropic =   231.9498   Anisotropy =    25.3750

      2  C    Isotropic =   148.6927   Anisotropy =    38.1662

      3  C    Isotropic =   156.3290   Anisotropy =    37.1780

      4  C    Isotropic =   141.5254   Anisotropy =    39.9326

      5  N    Isotropic =   230.3806   Anisotropy =    50.0939

      6  C    Isotropic =   157.0998   Anisotropy =    50.1160

      7  H    Isotropic =    31.4727   Anisotropy =    12.6151

      8  H    Isotropic =    31.5397   Anisotropy =    12.6664

      9  H    Isotropic =    29.4522   Anisotropy =     6.1955

     10  H    Isotropic =    28.7648   Anisotropy =     5.6733

     11  H    Isotropic =    30.7163   Anisotropy =     6.5745

     12  H    Isotropic =    30.0712   Anisotropy =     3.7803

     13  H    Isotropic =    29.0536   Anisotropy =     6.9928

     14  H    Isotropic =    29.2086   Anisotropy =     7.4444

     15  H    Isotropic =    31.3149   Anisotropy =    15.4524

     16  H    Isotropic =    29.4040   Anisotropy =     9.5014

     17  H    Isotropic =    29.7975   Anisotropy =     9.3229

     18  H    Isotropic =    29.2867   Anisotropy =     7.4286

  Exact polarizability:  78.467   2.284  72.717   2.646  -1.450  67.948
 Approx polarizability:  78.521   2.270  78.312   2.797  -1.606  74.903

                      1                      2                      3
                      A                      A                      A
 Frequencies --     61.6221                88.1713               146.6433
 Red. masses --      2.4596                 1.9955                 1.7383
 Frc consts  --      0.0055                 0.0091                 0.0220
 IR Inten    --      1.0202                 2.3309                 2.1794

                      4                      5                      6
                      A                      A                      A
 Frequencies --    239.0260               245.5081               296.0495
 Red. masses --      1.3436                 2.4407                 1.1254
 Frc consts  --      0.0452                 0.0867                 0.0581
 IR Inten    --      1.7718                 7.0792                69.4975

                      7                      8                      9
                      A                      A                      A
 Frequencies --    341.7181               417.0547               520.8962
 Red. masses --      2.5428                 2.0626                 2.3471
 Frc consts  --      0.1749                 0.2114                 0.3752
 IR Inten    --     12.2574                 9.3020                16.4318

                     10                     11                     12
                      A                      A                      A
 Frequencies --    749.8526               805.1022               854.3397
 Red. masses --      1.2864                 1.3540                 2.2511
 Frc consts  --      0.4262                 0.5171                 0.9681
 IR Inten    --     44.5152                99.8779                53.5901

                     13                     14                     15
                      A                      A                      A
 Frequencies --    881.9739               934.9828               985.4874
 Red. masses --      1.7103                 1.5281                 1.5594
 Frc consts  --      0.7839                 0.7871                 0.8923
 IR Inten    --      6.9755               190.4518                10.2479

                     16                     17                     18
                      A                      A                      A
 Frequencies --   1033.0051              1071.2003              1096.8871
 Red. masses --      1.6956                 2.6338                 1.4438
 Frc consts  --      1.0661                 1.7806                 1.0235
 IR Inten    --      1.7990                29.9100                21.0224

                     19                     20                     21
                      A                      A                      A
 Frequencies --   1115.5475              1147.7751              1177.4578
 Red. masses --      2.0237                 1.4805                 2.3375
 Frc consts  --      1.4838                 1.1492                 1.9094
 IR Inten    --     29.8004                17.4688                35.8451

                     22                     23                     24
                      A                      A                      A
 Frequencies --   1225.9411              1291.6008              1318.3353
 Red. masses --      1.6790                 1.3049                 1.2197
 Frc consts  --      1.4867                 1.2825                 1.2489
 IR Inten    --      4.4478                 4.4594                 1.1797

                     25                     26                     27
                      A                      A                      A
 Frequencies --   1349.0335              1388.9976              1401.4172
 Red. masses --      1.2034                 1.1830                 1.3940
 Frc consts  --      1.2903                 1.3447                 1.6130
 IR Inten    --     14.8799                 6.1388                21.3131

                     28                     29                     30
                      A                      A                      A
 Frequencies --   1409.7805              1464.6738              1484.0107
 Red. masses --      1.3540                 1.1810                 1.0874
 Frc consts  --      1.5855                 1.4927                 1.4109
 IR Inten    --     12.0229                 0.8528                 2.6851

                     31                     32                     33
                      A                      A                      A
 Frequencies --   1490.1031              1497.1818              1506.4426
 Red. masses --      1.2069                 1.0544                 1.1059
 Frc consts  --      1.5788                 1.3926                 1.4786
 IR Inten    --      9.0130                 2.5600                 3.8154

                     34                     35                     36
                      A                      A                      A
 Frequencies --   1511.2136              1523.7228              1660.3119
 Red. masses --      1.0904                 1.0606                 1.0871
 Frc consts  --      1.4672                 1.4508                 1.7657
 IR Inten    --      2.2742                10.5121                31.1204

                     37                     38                     39
                      A                      A                      A
 Frequencies --   2931.3257              2950.3463              3022.4610
 Red. masses --      1.0725                 1.0597                 1.0606
 Frc consts  --      5.4298                 5.4345                 5.7084
 IR Inten    --    141.3604               139.9371                26.2058

                     40                     41                     42
                      A                      A                      A
 Frequencies --   3029.5445              3049.9335              3063.1187
 Red. masses --      1.0678                 1.0939                 1.0938
 Frc consts  --      5.7742                 5.9955                 6.0468
 IR Inten    --     83.3956                 8.5375                90.6022

                     43                     44                     45
                      A                      A                      A
 Frequencies --   3073.2885              3093.4060              3115.5623
 Red. masses --      1.0739                 1.0998                 1.1030
 Frc consts  --      5.9759                 6.2009                 6.3078
 IR Inten    --     65.1012                85.7212                47.9173

                     46                     47                     48
                      A                      A                      A
 Frequencies --   3467.0281              3525.3494              3543.5740
 Red. masses --      1.0502                 1.0748                 1.0914
 Frc consts  --      7.4379                 7.8698                 8.0743
 IR Inten    --      1.9564                 0.1697                 0.3625

 - Thermochemistry -
 -------------------
 Temperature   298.150 Kelvin.  Pressure   1.00000 Atm.
 Atom     1 has atomic number  7 and mass  14.00307

 Molecular mass:    88.10005 amu.
 Principal axes and moments of inertia in atomic units:
                           1         2         3
     Eigenvalues --   248.743701140.582941212.85096
           X            0.99995   0.01022   0.00107
           Y           -0.01014   0.99838  -0.05600
           Z           -0.00164   0.05599   0.99843
 This molecule is an asymmetric top.
 Rotational symmetry number  1.
 Rotational temperatures (Kelvin)      0.34821     0.07594     0.07141
 Rotational constants (GHZ):           7.25542     1.58230     1.48802
 Zero-point vibrational energy     440213.8 (Joules/Mol)
                                  105.21363 (Kcal/Mol)
 Warning -- explicit consideration of   9 degrees of freedom as
           vibrations may cause significant error
 Vibrational temperatures:     88.66   126.86   210.99   343.91   353.23
          (Kelvin)            425.95   491.66   600.05   749.45  1078.87
                             1158.36  1229.20  1268.96  1345.23  1417.90
                             1486.26  1541.22  1578.18  1605.02  1651.39
                             1694.10  1763.86  1858.33  1896.79  1940.96
                             1998.46  2016.33  2028.36  2107.34  2135.16
                             2143.93  2154.11  2167.43  2174.30  2192.30
                             2388.82  4217.52  4244.89  4348.65  4358.84
                             4388.17  4407.14  4421.78  4450.72  4482.60
                             4988.28  5072.19  5098.41

 Zero-point correction=                           0.167669 (Hartree/Particle)
 Thermal correction to Energy=                    0.175645
 Thermal correction to Enthalpy=                  0.176589
 Thermal correction to Gibbs Free Energy=         0.135328
 Sum of electronic and zero-point Energies=           -268.992671
 Sum of electronic and thermal Energies=              -268.984695
 Sum of electronic and thermal Enthalpies=            -268.983751
 Sum of electronic and thermal Free Energies=         -269.025011

                     E (Thermal)             CV                S
                      KCal/Mol        Cal/Mol-Kelvin    Cal/Mol-Kelvin
 Total                  110.219             27.734             86.840
 Electronic               0.000              0.000              0.000
 Translational            0.889              2.981             39.340
 Rotational               0.889              2.981             27.334
 Vibrational            108.441             21.772             20.166
 Vibration     1          0.597              1.973              4.405
 Vibration     2          0.601              1.957              3.700
 Vibration     3          0.617              1.906              2.715
 Vibration     4          0.657              1.781              1.810
 Vibration     5          0.660              1.770              1.763
 Vibration     6          0.690              1.681              1.439
 Vibration     7          0.721              1.592              1.204
 Vibration     8          0.780              1.433              0.902
 Vibration     9          0.876              1.204              0.608

 Optimization completed.
    -- Stationary point found.
 Normal termination of Gaussian 16 at Thu Jul 11 20:48:27 2024.
 Gaussian 16:  EM64L-G16RevA.03 25-Dec-2016

 ----------------------------------------------------------------------
 # TD(NStates=10, Root=1) B3LYP/6-31G** SCRF=(Solvent=water) volume pop
 =NPA density=current Geom=AllCheck Guess=Read
 ----------------------------------------------------------------------

 Structure from the checkpoint file:  "QHJABUZHRJTCAR-UHFFFAOYSA-N_conf_0_2.chk"
 ----------------------------------
 QHJABUZHRJTCAR-UHFFFAOYSA-N_conf_0
 ----------------------------------
 Charge =  0 Multiplicity = 1

                         Standard orientation:
 ---------------------------------------------------------------------
 Center     Atomic      Atomic             Coordinates (Angstroms)
 Number     Number       Type             X           Y           Z
 ---------------------------------------------------------------------
      1          7           0        2.771721   -0.565944   -0.061139
      2          6           0        1.488005    0.003745   -0.498884
      3          6           0        0.539298    0.450472    0.622488
      4          6           0       -0.789166    1.028574    0.115407
      5          7           0       -1.595075    0.048996   -0.624723
      6          6           0       -2.310533   -0.891496    0.236531
      7          1           0        3.238259    0.105265    0.548395
      8          1           0        2.585612   -1.372752    0.533721
      9          1           0        1.704556    0.861583   -1.149844
     10          1           0        0.980246   -0.737061   -1.124963
     11          1           0        1.036040    1.216471    1.233586
     12          1           0        0.349182   -0.397903    1.293992
     13          1           0       -0.574461    1.860708   -0.566511
     14          1           0       -1.343517    1.456042    0.971899
     15          1           0       -2.280637    0.556896   -1.177232
     16          1           0       -2.979578   -1.506619   -0.372496
     17          1           0       -2.912670   -0.405274    1.025256
     18          1           0       -1.605181   -1.566490    0.731983
 ---------------------------------------------------------------------

 SCF Done:  E(RB3LYP) =  -269.160339716     A.U. after    1 cycles

 Excitation energies and oscillator strengths:

 Excited State   1:      Singlet-A      7.0136 eV  176.78 nm  f=0.0105  <S**2>=0.000
      24 -> 27        -0.11745
      25 -> 26         0.64814
      25 -> 27        -0.23304
 This state for optimization and/or second-order correction.
 Total Energy, E(TD-HF/TD-DFT) =  -268.902595678
 Copying the excited state density for this state as the 1-particle RhoCI density.

 Excited State   2:      Singlet-A      7.3471 eV  168.75 nm  f=0.0220  <S**2>=0.000
      24 -> 26        -0.35119
      24 -> 27        -0.21143
      25 -> 26         0.19557
      25 -> 27         0.53179

 Excited State   3:      Singlet-A      7.7617 eV  159.74 nm  f=0.0083  <S**2>=0.000
      24 -> 26         0.43714
      24 -> 27         0.30340
      25 -> 26         0.14531
      25 -> 27         0.34264
      25 -> 28         0.26693

 Excited State   4:      Singlet-A      8.0583 eV  153.86 nm  f=0.0336  <S**2>=0.000
      24 -> 26        -0.38856
      24 -> 27         0.33393
      25 -> 27        -0.17230
      25 -> 28         0.41648
      25 -> 29         0.14989

 Excited State   5:      Singlet-A      8.1615 eV  151.91 nm  f=0.0241  <S**2>=0.000
      24 -> 26         0.12277
      24 -> 27        -0.44500
      25 -> 26        -0.11038
      25 -> 28         0.49043

 Excited State   6:      Singlet-A      8.5147 eV  145.61 nm  f=0.0251  <S**2>=0.000
      24 -> 26         0.10473
      24 -> 27        -0.12728
      24 -> 28         0.24782
      25 -> 29         0.62322

 Excited State   7:      Singlet-A      8.7162 eV  142.25 nm  f=0.0449  <S**2>=0.000
      24 -> 28         0.57966
      24 -> 29        -0.15999
      25 -> 29        -0.24682
      25 -> 30        -0.16086
      25 -> 31         0.11513
      25 -> 33        -0.10071

 Excited State   8:      Singlet-A      8.8709 eV  139.76 nm  f=0.0688  <S**2>=0.000
      24 -> 28         0.17042
      25 -> 30         0.65014
      25 -> 31         0.12135
      25 -> 32        -0.11571

 Excited State   9:      Singlet-A      9.1314 eV  135.78 nm  f=0.0487  <S**2>=0.000
      24 -> 28         0.19205
      24 -> 29         0.48662
      24 -> 30        -0.10926
      25 -> 31        -0.36850
      25 -> 32         0.22114

 Excited State  10:      Singlet-A      9.1783 eV  135.08 nm  f=0.0724  <S**2>=0.000
      24 -> 29         0.40852
      24 -> 31         0.12918
      25 -> 30        -0.13956
      25 -> 31         0.43219
      25 -> 32        -0.20649
      25 -> 33         0.21075

 The electronic state is 1-A.
 Alpha  occ. eigenvalues --  -14.31452 -14.30810 -10.20163 -10.19712 -10.19656
 Alpha  occ. eigenvalues --  -10.17256  -0.89395  -0.87078  -0.74834  -0.67361
 Alpha  occ. eigenvalues --   -0.62729  -0.56807  -0.49862  -0.47639  -0.45326
 Alpha  occ. eigenvalues --   -0.42970  -0.40952  -0.39949  -0.37701  -0.37222
 Alpha  occ. eigenvalues --   -0.35052  -0.33061  -0.32430  -0.23874  -0.21669
 Alpha virt. eigenvalues --    0.08262   0.09473   0.11848   0.13421   0.14766
 Alpha virt. eigenvalues --    0.15931   0.16218   0.17177   0.18844   0.19943
 Alpha virt. eigenvalues --    0.20468   0.22072   0.22557   0.24222   0.24697

 Mulliken charges:
               1
     1  N   -0.597034
     2  C   -0.027907
     3  C   -0.147971
     4  C   -0.038066
     5  N   -0.145727
     6  C   -0.157842
     7  H    0.233530
     8  H    0.238564
     9  H    0.077220
    10  H    0.077159
    11  H    0.040307
    12  H    0.059778
    13  H    0.015303
    14  H    0.121123
    15  H   -0.002476
    16  H    0.036802
    17  H    0.124718
    18  H    0.092518
 Sum of Mulliken charges =  -0.00000

 Dipole moment (field-independent basis, Debye):
    X=             -1.0857    Y=             -0.0300    Z=              2.3039  Tot=              2.5471
 Quadrupole moment (field-independent basis, Debye-Ang):
   XX=            -46.0510   YY=            -41.4704   ZZ=            -42.4880
   XY=              1.6144   XZ=              1.6486   YZ=             -0.5675

 Summary of Natural Population Analysis:

                                       Natural Population
                Natural  -----------------------------------------------
    Atom  No    Charge         Core      Valence    Rydberg      Total
 -----------------------------------------------------------------------
      N    1   -0.87268      1.99968     5.85812    0.01488     7.87268
      C    2   -0.27272      1.99935     4.25590    0.01747     6.27272
      C    3   -0.49569      1.99931     4.48260    0.01378     6.49569
      C    4   -0.32870      1.99929     4.31061    0.01880     6.32870
      N    5   -0.24937      1.99937     5.23616    0.01383     7.24937
      C    6   -0.57435      1.99945     4.55205    0.02285     6.57435
      H    7    0.36958      0.00000     0.61819    0.01223     0.63042
      H    8    0.37272      0.00000     0.61755    0.00972     0.62728
      H    9    0.20919      0.00000     0.77772    0.01309     0.79081
      H   10    0.20733      0.00000     0.77950    0.01317     0.79267
      H   11    0.19121      0.00000     0.78738    0.02140     0.80879
      H   12    0.20760      0.00000     0.77027    0.02213     0.79240
      H   13    0.16538      0.00000     0.79573    0.03889     0.83462
      H   14    0.25857      0.00000     0.71862    0.02281     0.74143
      H   15    0.17834      0.00000     0.72662    0.09504     0.82166
      H   16    0.17393      0.00000     0.79615    0.02991     0.82607
      H   17    0.24775      0.00000     0.73281    0.01944     0.75225
      H   18    0.21188      0.00000     0.76563    0.02249     0.78812
 =======================================================================
   * Total *   -0.00000     11.99645    37.58161    0.42194    50.00000

 1\1\GINC-CN33\SP\RB3LYP TD-FC\6-31G(d,p)\C4H12N2\QDUEZ\11-Jul-2024\0\\
 # TD(NStates=10, Root=1) B3LYP/6-31G** SCRF=(Solvent=water) volume pop
 =NPA density=current Geom=AllCheck Guess=Read\\QHJABUZHRJTCAR-UHFFFAOY
 SA-N_conf_0\\0,1\N,0,-2.6232624275,0.7887372708,1.0319733214\C,0,-1.67
 11540645,-0.0201299493,0.2552390531\C,0,-0.2757202664,-0.1850155226,0.
 8738347627\C,0,0.6830158852,-1.0283954387,0.0219631021\N,0,0.973095307
 4,-0.4224905995,-1.2840182397\C,0,1.9513250323,0.6625922293,-1.2221641
 378\H,0,-2.6980475628,0.397076753,1.9704406318\H,0,-2.2275694582,1.718

 Normal termination of Gaussian 16 at Thu Jul 11 21:00:57 2024.
