 Gaussian 16, Revision A.03,

 -------------------------------------------------------
 # opt=CalcFc B3LYP/6-31G** SCRF=(Solvent=water) scf=xqc
 -------------------------------------------------------

 ----------------------------------
 IWBOPFCKHIJFMS-UHFFFAOYSA-N_conf_2
 ----------------------------------
 Symbolic Z-matrix:
 Charge =  0 Multiplicity = 1

 SCF Done:  E(RB3LYP) =  -498.209476468     A.U. after   11 cycles
 SCF Done:  E(RB3LYP) =  -498.212350340     A.U. after   12 cycles
 SCF Done:  E(RB3LYP) =  -498.212296010     A.U. after   12 cycles
 SCF Done:  E(RB3LYP) =  -498.213344357     A.U. after   10 cycles
 SCF Done:  E(RB3LYP) =  -498.213342594     A.U. after    9 cycles
 SCF Done:  E(RB3LYP) =  -498.213367819     A.U. after    9 cycles
 SCF Done:  E(RB3LYP) =  -498.213368279     A.U. after    7 cycles
 SCF Done:  E(RB3LYP) =  -498.213368483     A.U. after    6 cycles
 SCF Done:  E(RB3LYP) =  -498.213368518     A.U. after    6 cycles
 SCF Done:  E(RB3LYP) =  -498.213368503     A.U. after    6 cycles
 Optimization completed.
    -- Stationary point found.
 Normal termination of Gaussian 16 at Thu Jul 18 02:31:08 2024.

 ----------------------------------------------------------------------
 # freq B3LYP/6-31G** SCRF=(Solvent=water) volume NMR pop=NPA density=c
 urrent Geom=AllCheck Guess=Read
 ----------------------------------------------------------------------

 Structure from the checkpoint file:  "IWBOPFCKHIJFMS-UHFFFAOYSA-N_conf_2_1.chk"
 ----------------------------------
 IWBOPFCKHIJFMS-UHFFFAOYSA-N_conf_2
 ----------------------------------
 Charge =  0 Multiplicity = 1

 SCF Done:  E(RB3LYP) =  -498.213368503     A.U. after    1 cycles

      1  N    Isotropic =   240.0864   Anisotropy =    37.9452

      2  C    Isotropic =   147.5208   Anisotropy =    25.7976

      3  C    Isotropic =   120.5729   Anisotropy =    47.6359

      4  O    Isotropic =   302.1002   Anisotropy =    37.3926

      5  C    Isotropic =   120.3149   Anisotropy =    60.1836

      6  C    Isotropic =   127.9573   Anisotropy =    64.8653

      7  O    Isotropic =   305.6291   Anisotropy =    36.7105

      8  C    Isotropic =   120.1524   Anisotropy =    57.9078

      9  C    Isotropic =   152.1262   Anisotropy =    34.8552

     10  N    Isotropic =   239.0588   Anisotropy =    33.2661

     11  H    Isotropic =    30.5392   Anisotropy =    11.4736

     12  H    Isotropic =    31.7844   Anisotropy =    14.0156

     13  H    Isotropic =    29.2475   Anisotropy =     7.8765

     14  H    Isotropic =    29.0583   Anisotropy =     7.3862

     15  H    Isotropic =    27.8144   Anisotropy =     4.7312

     16  H    Isotropic =    28.9918   Anisotropy =     6.6789

     17  H    Isotropic =    28.3426   Anisotropy =     6.3148

     18  H    Isotropic =    27.6055   Anisotropy =     7.2355

     19  H    Isotropic =    28.2740   Anisotropy =     6.2911

     20  H    Isotropic =    28.1729   Anisotropy =     5.8047

     21  H    Isotropic =    28.2921   Anisotropy =     6.2106

     22  H    Isotropic =    27.8489   Anisotropy =     8.5405

     23  H    Isotropic =    28.3135   Anisotropy =     6.6516

     24  H    Isotropic =    29.6406   Anisotropy =     8.5663

     25  H    Isotropic =    30.9007   Anisotropy =    11.5032

     26  H    Isotropic =    31.2707   Anisotropy =    15.8100

  Exact polarizability: 119.116   0.190 107.278  -3.083   1.667  98.415
 Approx polarizability: 117.574   0.801 114.048  -2.560   2.936 112.283

                      1                      2                      3
                      A                      A                      A
 Frequencies --     23.6232                31.2300                36.4238
 Red. masses --      3.7340                 3.1891                 3.7490
 Frc consts  --      0.0012                 0.0018                 0.0029
 IR Inten    --      0.3736                 0.5112                 0.6909

                      4                      5                      6
                      A                      A                      A
 Frequencies --     73.4296               108.1371               157.9005
 Red. masses --      4.2377                 3.4901                 3.0990
 Frc consts  --      0.0135                 0.0240                 0.0455
 IR Inten    --      0.1775                 0.2833                 2.6816

                      7                      8                      9
                      A                      A                      A
 Frequencies --    204.9793               234.6465               238.1887
 Red. masses --      2.0573                 1.8374                 2.2926
 Frc consts  --      0.0509                 0.0596                 0.0766
 IR Inten    --     11.6625                53.8576                24.4494

                     10                     11                     12
                      A                      A                      A
 Frequencies --    256.5685               294.8577               334.5939
 Red. masses --      1.6973                 1.9580                 1.3402
 Frc consts  --      0.0658                 0.1003                 0.0884
 IR Inten    --     19.3043                32.2248                48.4121

                     13                     14                     15
                      A                      A                      A
 Frequencies --    374.4327               416.7448               500.1839
 Red. masses --      1.9546                 2.1882                 2.3187
 Frc consts  --      0.1615                 0.2239                 0.3418
 IR Inten    --     14.5388                14.8754                17.9978

                     16                     17                     18
                      A                      A                      A
 Frequencies --    534.0543               569.3774               795.2697
 Red. masses --      2.3577                 2.4897                 1.7495
 Frc consts  --      0.3962                 0.4755                 0.6519
 IR Inten    --      7.9374                 7.6083                 7.0529

                     19                     20                     21
                      A                      A                      A
 Frequencies --    816.5392               875.4639               893.3222
 Red. masses --      1.9723                 2.1592                 2.6787
 Frc consts  --      0.7748                 0.9750                 1.2595
 IR Inten    --     37.9625                73.0388                56.4951

                     22                     23                     24
                      A                      A                      A
 Frequencies --    906.2885               916.3600               919.1560
 Red. masses --      1.7287                 1.8538                 1.4823
 Frc consts  --      0.8366                 0.9171                 0.7378
 IR Inten    --      1.1823                 2.2445               148.3236

                     25                     26                     27
                      A                      A                      A
 Frequencies --    950.0788              1008.2519              1040.5314
 Red. masses --      1.4196                 1.7619                 2.6001
 Frc consts  --      0.7550                 1.0553                 1.6586
 IR Inten    --    225.0693                35.1239                69.3463

                     28                     29                     30
                      A                      A                      A
 Frequencies --   1057.3676              1076.8685              1120.2508
 Red. masses --      2.6168                 2.1715                 2.6907
 Frc consts  --      1.7238                 1.4837                 1.9895
 IR Inten    --     68.5702                65.7373               137.0416

                     31                     32                     33
                      A                      A                      A
 Frequencies --   1133.9677              1144.3551              1154.7541
 Red. masses --      2.3631                 2.5439                 2.6401
 Frc consts  --      1.7903                 1.9628                 2.0742
 IR Inten    --     66.2230                70.1050                56.3061

                     34                     35                     36
                      A                      A                      A
 Frequencies --   1164.8058              1191.0016              1216.0134
 Red. masses --      2.5178                 1.4124                 1.3928
 Frc consts  --      2.0127                 1.1804                 1.2134
 IR Inten    --     39.3791                24.9563                11.2249

                     37                     38                     39
                      A                      A                      A
 Frequencies --   1274.9226              1279.6358              1296.2077
 Red. masses --      1.1743                 1.1463                 1.1982
 Frc consts  --      1.1246                 1.1059                 1.1861
 IR Inten    --     31.9409                 7.3452                24.4678

                     40                     41                     42
                      A                      A                      A
 Frequencies --   1327.5574              1347.7363              1389.2870
 Red. masses --      1.1572                 1.1504                 1.2484
 Frc consts  --      1.2017                 1.2311                 1.4197
 IR Inten    --     29.0924                19.5182                74.1387

                     43                     44                     45
                      A                      A                      A
 Frequencies --   1397.1148              1399.7286              1412.3839
 Red. masses --      1.1966                 1.2593                 1.3138
 Frc consts  --      1.3762                 1.4537                 1.5441
 IR Inten    --      7.0540                 2.3212                 4.4514

                     46                     47                     48
                      A                      A                      A
 Frequencies --   1431.5557              1437.5167              1438.7385
 Red. masses --      1.3271                 1.4151                 1.4859
 Frc consts  --      1.6024                 1.7230                 1.8122
 IR Inten    --      3.4309                10.2798                 9.1016

                     49                     50                     51
                      A                      A                      A
 Frequencies --   1485.3832              1486.4694              1490.8932
 Red. masses --      1.0913                 1.0918                 1.0931
 Frc consts  --      1.4186                 1.4214                 1.4315
 IR Inten    --      3.8737                 2.5612                 6.1916

                     52                     53                     54
                      A                      A                      A
 Frequencies --   1516.7589              1523.2416              1524.1213
 Red. masses --      1.0887                 1.0918                 1.0930
 Frc consts  --      1.4757                 1.4926                 1.4959
 IR Inten    --      5.6707                10.1539                 9.6026

                     55                     56                     57
                      A                      A                      A
 Frequencies --   1646.2074              1662.7733              2970.7460
 Red. masses --      1.0867                 1.0868                 1.0715
 Frc consts  --      1.7352                 1.7703                 5.5713
 IR Inten    --     47.5707                32.7772                79.8489

                     58                     59                     60
                      A                      A                      A
 Frequencies --   2975.4522              2990.8988              3003.2481
 Red. masses --      1.0576                 1.0579                 1.0698
 Frc consts  --      5.5168                 5.5758                 5.6850
 IR Inten    --     44.5404                41.6336               147.1746

                     61                     62                     63
                      A                      A                      A
 Frequencies --   3011.6500              3017.5493              3027.8376
 Red. masses --      1.0687                 1.0941                 1.1045
 Frc consts  --      5.7112                 5.8699                 5.9659
 IR Inten    --     76.5565                60.2630                77.2776

                     64                     65                     66
                      A                      A                      A
 Frequencies --   3045.3117              3058.7888              3089.6459
 Red. masses --      1.0646                 1.0895                 1.1041
 Frc consts  --      5.8171                 6.0061                 6.2099
 IR Inten    --     91.6010                66.2110                70.5851

                     67                     68                     69
                      A                      A                      A
 Frequencies --   3090.8489              3092.9232              3473.0843
 Red. masses --      1.0995                 1.0966                 1.0503
 Frc consts  --      6.1887                 6.1809                 7.4644
 IR Inten    --     69.1082                46.9414                 1.4088

                     70                     71                     72
                      A                      A                      A
 Frequencies --   3485.8757              3551.3328              3565.6433
 Red. masses --      1.0506                 1.0910                 1.0916
 Frc consts  --      7.5214                 8.1068                 8.1766
 IR Inten    --      1.7469                 0.8721                 1.0744

 - Thermochemistry -
 -------------------
 Temperature   298.150 Kelvin.  Pressure   1.00000 Atm.
 Atom     1 has atomic number  7 and mass  14.00307

 Molecular mass:   148.12118 amu.
 Principal axes and moments of inertia in atomic units:
                           1         2         3
     Eigenvalues --   467.038774410.534184489.78682
           X            1.00000  -0.00173   0.00051
           Y            0.00173   1.00000   0.00241
           Z           -0.00052  -0.00241   1.00000
 This molecule is an asymmetric top.
 Rotational symmetry number  1.
 Warning -- assumption of classical behavior for rotation
           may cause significant error
 Rotational temperatures (Kelvin)      0.18545     0.01964     0.01929
 Rotational constants (GHZ):           3.86422     0.40919     0.40197
 Zero-point vibrational energy     616011.5 (Joules/Mol)
                                  147.23029 (Kcal/Mol)
 Warning -- explicit consideration of  17 degrees of freedom as
           vibrations may cause significant error
 Vibrational temperatures:     33.99    44.93    52.41   105.65   155.59
          (Kelvin)            227.18   294.92   337.60   342.70   369.14
                              424.23   481.41   538.73   599.60   719.65
                              768.38   819.21  1144.22  1174.82  1259.60
                             1285.29  1303.95  1318.44  1322.46  1366.95
                             1450.65  1497.09  1521.32  1549.37  1611.79
                             1631.53  1646.47  1661.43  1675.90  1713.59
                             1749.57  1834.33  1841.11  1864.95  1910.06
                             1939.09  1998.87  2010.14  2013.90  2032.11
                             2059.69  2068.27  2070.02  2137.14  2138.70
                             2145.06  2182.28  2191.60  2192.87  2368.53
                             2392.36  4274.24  4281.01  4303.24  4321.00
                             4333.09  4341.58  4356.38  4381.52  4400.91
                             4445.31  4447.04  4450.03  4996.99  5015.40
                             5109.58  5130.17

 Zero-point correction=                           0.234626 (Hartree/Particle)
 Thermal correction to Energy=                    0.247169
 Thermal correction to Enthalpy=                  0.248113
 Thermal correction to Gibbs Free Energy=         0.193495
 Sum of electronic and zero-point Energies=           -497.978742
 Sum of electronic and thermal Energies=              -497.966200
 Sum of electronic and thermal Enthalpies=            -497.965255
 Sum of electronic and thermal Free Energies=         -498.019873

                     E (Thermal)             CV                S
                      KCal/Mol        Cal/Mol-Kelvin    Cal/Mol-Kelvin
 Total                  155.101             43.764            114.953
 Electronic               0.000              0.000              0.000
 Translational            0.889              2.981             40.889
 Rotational               0.889              2.981             30.604
 Vibrational            153.323             37.803             43.460
 Vibration     1          0.593              1.985              6.304
 Vibration     2          0.594              1.983              5.750
 Vibration     3          0.594              1.982              5.445
 Vibration     4          0.599              1.967              4.059
 Vibration     5          0.606              1.943              3.302
 Vibration     6          0.621              1.894              2.575
 Vibration     7          0.640              1.833              2.088
 Vibration     8          0.654              1.788              1.843
 Vibration     9          0.656              1.782              1.816
 Vibration    10          0.666              1.752              1.685
 Vibration    11          0.689              1.683              1.446
 Vibration    12          0.716              1.606              1.238
 Vibration    13          0.746              1.525              1.062
 Vibration    14          0.780              1.434              0.903
 Vibration    15          0.856              1.250              0.658
 Vibration    16          0.889              1.175              0.578
 Vibration    17          0.925              1.097              0.505

 Optimization completed.
    -- Stationary point found.
 Normal termination of Gaussian 16 at Thu Jul 18 02:38:23 2024.
 Gaussian 16:  ES64L-G16RevA.03 25-Dec-2016

 ----------------------------------------------------------------------
 # TD(NStates=10, Root=1) B3LYP/6-31G** SCRF=(Solvent=water) volume pop
 =NPA density=current Geom=AllCheck Guess=Read
 ----------------------------------------------------------------------

 Structure from the checkpoint file:  "IWBOPFCKHIJFMS-UHFFFAOYSA-N_conf_2_2.chk"
 ----------------------------------
 IWBOPFCKHIJFMS-UHFFFAOYSA-N_conf_2
 ----------------------------------
 Charge =  0 Multiplicity = 1

                         Standard orientation:
 ---------------------------------------------------------------------
 Center     Atomic      Atomic             Coordinates (Angstroms)
 Number     Number       Type             X           Y           Z
 ---------------------------------------------------------------------
      1          7           0       -4.393780   -0.277382   -0.702292
      2          6           0       -3.528596    0.826593   -0.271568
      3          6           0       -2.326414    0.419619    0.577639
      4          8           0       -1.523798   -0.458528   -0.205695
      5          6           0       -0.502050   -1.137287    0.510352
      6          6           0        0.696112   -0.271521    0.874244
      7          8           0        1.308452    0.187552   -0.323721
      8          6           0        2.408699    1.075274   -0.120721
      9          6           0        3.700265    0.342725    0.231091
     10          7           0        4.065437   -0.570366   -0.859185
     11          1           0       -3.796292   -0.990233   -1.118793
     12          1           0       -4.795923   -0.719658    0.123690
     13          1           0       -4.127154    1.550217    0.293248
     14          1           0       -3.160885    1.345469   -1.165470
     15          1           0       -1.760968    1.313067    0.883463
     16          1           0       -2.662632   -0.093113    1.494167
     17          1           0       -0.904874   -1.583765    1.432861
     18          1           0       -0.167268   -1.949738   -0.142865
     19          1           0        1.385026   -0.882114    1.477392
     20          1           0        0.391681    0.584468    1.496015
     21          1           0        2.166568    1.814684    0.656772
     22          1           0        2.540626    1.602474   -1.071333
     23          1           0        3.586709   -0.153291    1.209618
     24          1           0        4.492597    1.091832    0.352368
     25          1           0        3.290217   -1.217819   -0.991775
     26          1           0        4.855643   -1.142847   -0.569918
 ---------------------------------------------------------------------

 SCF Done:  E(RB3LYP) =  -498.213368503     A.U. after    1 cycles

 Excitation energies and oscillator strengths:

 Excited State   1:      Singlet-A      7.3563 eV  168.54 nm  f=0.0191  <S**2>=0.000
      41 -> 42         0.64164
      41 -> 43        -0.25100
 This state for optimization and/or second-order correction.
 Total Energy, E(TD-HF/TD-DFT) =  -497.943029633
 Copying the excited state density for this state as the 1-particle RhoCI density.

 Excited State   2:      Singlet-A      7.6320 eV  162.45 nm  f=0.0234  <S**2>=0.000
      40 -> 42         0.47591
      40 -> 43         0.49501
      40 -> 45        -0.12333

 Excited State   3:      Singlet-A      8.0007 eV  154.97 nm  f=0.0051  <S**2>=0.000
      38 -> 42        -0.34612
      38 -> 43         0.12594
      39 -> 42         0.53262
      40 -> 42        -0.10443
      40 -> 43         0.11369
      41 -> 43        -0.11242
      41 -> 44         0.10957

 Excited State   4:      Singlet-A      8.0812 eV  153.42 nm  f=0.0482  <S**2>=0.000
      38 -> 42         0.52392
      39 -> 42         0.32844
      39 -> 43         0.20892
      40 -> 42        -0.11420
      41 -> 43         0.12080

 Excited State   5:      Singlet-A      8.2256 eV  150.73 nm  f=0.0144  <S**2>=0.000
      39 -> 42         0.21098
      40 -> 42         0.49075
      40 -> 43        -0.39475
      40 -> 44        -0.10869
      40 -> 45         0.17290

 Excited State   6:      Singlet-A      8.3506 eV  148.47 nm  f=0.0165  <S**2>=0.000
      38 -> 42        -0.23295
      41 -> 42         0.26627
      41 -> 43         0.53660
      41 -> 44        -0.19646
      41 -> 45         0.12400
      41 -> 47         0.10568

 Excited State   7:      Singlet-A      8.5590 eV  144.86 nm  f=0.0232  <S**2>=0.000
      41 -> 43         0.21874
      41 -> 44         0.53810
      41 -> 45         0.23169
      41 -> 46         0.11510
      41 -> 47        -0.25795

 Excited State   8:      Singlet-A      8.6571 eV  143.22 nm  f=0.0143  <S**2>=0.000
      38 -> 42        -0.12562
      38 -> 43         0.18153
      39 -> 42        -0.18210
      39 -> 43         0.58006
      39 -> 44         0.17339
      40 -> 45        -0.10908

 Excited State   9:      Singlet-A      8.7274 eV  142.06 nm  f=0.0228  <S**2>=0.000
      38 -> 44         0.12171
      39 -> 44        -0.12016
      40 -> 44         0.22199
      41 -> 44         0.16148
      41 -> 46         0.31709
      41 -> 47         0.49024
      41 -> 48         0.10640

 Excited State  10:      Singlet-A      8.7482 eV  141.73 nm  f=0.0313  <S**2>=0.000
      40 -> 44         0.53434
      40 -> 46        -0.12691
      40 -> 47         0.19432
      40 -> 48        -0.21118
      41 -> 46        -0.16178
      41 -> 47        -0.18721

 The electronic state is 1-A.
 Alpha  occ. eigenvalues --  -19.15036 -19.15034 -14.31008 -14.30893 -10.23225
 Alpha  occ. eigenvalues --  -10.23027 -10.22776 -10.22622 -10.20536 -10.20412
 Alpha  occ. eigenvalues --   -1.03755  -1.02284  -0.87584  -0.87374  -0.76544
 Alpha  occ. eigenvalues --   -0.72419  -0.69620  -0.62863  -0.60080  -0.57680
 Alpha  occ. eigenvalues --   -0.51083  -0.49603  -0.48886  -0.48382  -0.47177
 Alpha  occ. eigenvalues --   -0.45760  -0.44887  -0.42581  -0.41821  -0.40338
 Alpha  occ. eigenvalues --   -0.38658  -0.37938  -0.36238  -0.35623  -0.35263
 Alpha  occ. eigenvalues --   -0.32633  -0.30874  -0.26175  -0.25716  -0.23953
 Alpha  occ. eigenvalues --   -0.23559
 Alpha virt. eigenvalues --    0.07524   0.09360   0.11051   0.11586   0.12556
 Alpha virt. eigenvalues --    0.12585   0.13922   0.14435   0.14615   0.16022
 Alpha virt. eigenvalues --    0.16278   0.17274   0.17588   0.18270   0.19703

 Mulliken charges:
               1
     1  N   -0.632412
     2  C   -0.080183
     3  C    0.074725
     4  O   -0.506366
     5  C    0.057346
     6  C    0.071630
     7  O   -0.454712
     8  C    0.042332
     9  C   -0.086566
    10  N   -0.137551
    11  H    0.248302
    12  H    0.246032
    13  H    0.106778
    14  H    0.107322
    15  H    0.069646
    16  H    0.077443
    17  H    0.075740
    18  H    0.091012
    19  H   -0.014279
    20  H    0.057010
    21  H    0.079585
    22  H    0.126034
    23  H    0.103903
    24  H    0.098139
    25  H    0.106273
    26  H    0.072817
 Sum of Mulliken charges =  -0.00000

 Dipole moment (field-independent basis, Debye):
    X=              4.7858    Y=              0.3641    Z=              2.5477  Tot=              5.4339
 Quadrupole moment (field-independent basis, Debye-Ang):
   XX=            -61.6393   YY=            -61.2296   ZZ=            -65.2400
   XY=              3.5830   XZ=             -9.7799   YZ=              0.4242

 Summary of Natural Population Analysis:

                                       Natural Population
                Natural  -----------------------------------------------
    Atom  No    Charge         Core      Valence    Rydberg      Total
 -----------------------------------------------------------------------
      N    1   -0.92633      1.99971     5.91118    0.01545     7.92633
      C    2   -0.28965      1.99935     4.27377    0.01653     6.28965
      C    3   -0.13181      1.99926     4.11573    0.01683     6.13181
      O    4   -0.60627      1.99979     6.59367    0.01280     8.60627
      C    5   -0.12679      1.99925     4.10746    0.02008     6.12679
      C    6   -0.17343      1.99926     4.15026    0.02392     6.17343
      O    7   -0.56790      1.99980     6.55406    0.01404     8.56790
      C    8   -0.15247      1.99928     4.13146    0.02173     6.15247
      C    9   -0.37529      1.99926     4.35814    0.01789     6.37529
      N   10   -0.40570      1.99936     5.38718    0.01915     7.40570
      H   11    0.38574      0.00000     0.60945    0.00481     0.61426
      H   12    0.38113      0.00000     0.61535    0.00353     0.61887
      H   13    0.23416      0.00000     0.76375    0.00209     0.76584
      H   14    0.22764      0.00000     0.76959    0.00277     0.77236
      H   15    0.19248      0.00000     0.79877    0.00875     0.80752
      H   16    0.19566      0.00000     0.79935    0.00499     0.80434
      H   17    0.19537      0.00000     0.79812    0.00650     0.80463
      H   18    0.22133      0.00000     0.77079    0.00789     0.77867
      H   19    0.13114      0.00000     0.83359    0.03528     0.86886
      H   20    0.18567      0.00000     0.79950    0.01483     0.81433
      H   21    0.19363      0.00000     0.79269    0.01368     0.80637
      H   22    0.24399      0.00000     0.75261    0.00340     0.75601
      H   23    0.23980      0.00000     0.72265    0.03755     0.76020
      H   24    0.22211      0.00000     0.75743    0.02047     0.77789
      H   25    0.26915      0.00000     0.66739    0.06346     0.73085
      H   26    0.23517      0.00000     0.69108    0.07375     0.76483
 =======================================================================
   * Total *   -0.00148     19.99432    61.52501    0.48215    82.00148

 Normal termination of Gaussian 16 at Thu Jul 18 02:48:18 2024.
