 Gaussian 16, Revision A.03,

 -------------------------------------------------------
 # opt=CalcFc B3LYP/6-31G** SCRF=(Solvent=water) scf=xqc
 -------------------------------------------------------

 ----------------------------------
 IWBOPFCKHIJFMS-UHFFFAOYSA-N_conf_3
 ----------------------------------
 Symbolic Z-matrix:
 Charge =  0 Multiplicity = 1

 SCF Done:  E(RB3LYP) =  -498.208207224     A.U. after   11 cycles
 SCF Done:  E(RB3LYP) =  -498.212697432     A.U. after    9 cycles
 SCF Done:  E(RB3LYP) =  -498.213189782     A.U. after   10 cycles
 SCF Done:  E(RB3LYP) =  -498.213204535     A.U. after    8 cycles
 SCF Done:  E(RB3LYP) =  -498.213204822     A.U. after    7 cycles
 SCF Done:  E(RB3LYP) =  -498.213204886     A.U. after    7 cycles
 SCF Done:  E(RB3LYP) =  -498.213204893     A.U. after    6 cycles
 Optimization completed.
    -- Stationary point found.
 Normal termination of Gaussian 16 at Thu Jul 18 02:32:51 2024.

 ----------------------------------------------------------------------
 # freq B3LYP/6-31G** SCRF=(Solvent=water) volume NMR pop=NPA density=c
 urrent Geom=AllCheck Guess=Read
 ----------------------------------------------------------------------

 Structure from the checkpoint file:  "IWBOPFCKHIJFMS-UHFFFAOYSA-N_conf_3_1.chk"
 ----------------------------------
 IWBOPFCKHIJFMS-UHFFFAOYSA-N_conf_3
 ----------------------------------
 Charge =  0 Multiplicity = 1

 SCF Done:  E(RB3LYP) =  -498.213204893     A.U. after    1 cycles

      1  N    Isotropic =   238.6785   Anisotropy =    30.4580

      2  C    Isotropic =   148.0631   Anisotropy =    23.7563

      3  C    Isotropic =   117.4940   Anisotropy =    56.6033

      4  O    Isotropic =   287.4098   Anisotropy =    60.8709

      5  C    Isotropic =   121.3960   Anisotropy =    59.1284

      6  C    Isotropic =   120.5607   Anisotropy =    51.1965

      7  O    Isotropic =   300.7906   Anisotropy =    37.0641

      8  C    Isotropic =   120.1838   Anisotropy =    57.7941

      9  C    Isotropic =   152.4863   Anisotropy =    35.7216

     10  N    Isotropic =   239.1304   Anisotropy =    33.0132

     11  H    Isotropic =    30.8405   Anisotropy =    11.0808

     12  H    Isotropic =    31.3331   Anisotropy =    15.8298

     13  H    Isotropic =    28.6267   Anisotropy =     7.6558

     14  H    Isotropic =    29.4022   Anisotropy =     7.5961

     15  H    Isotropic =    28.4372   Anisotropy =     5.5155

     16  H    Isotropic =    27.4802   Anisotropy =     5.4636

     17  H    Isotropic =    27.9156   Anisotropy =     7.3206

     18  H    Isotropic =    28.1695   Anisotropy =     5.7823

     19  H    Isotropic =    28.4092   Anisotropy =     6.0819

     20  H    Isotropic =    27.8598   Anisotropy =     5.9507

     21  H    Isotropic =    27.8406   Anisotropy =     8.3795

     22  H    Isotropic =    28.2777   Anisotropy =     6.2817

     23  H    Isotropic =    29.6614   Anisotropy =     8.6857

     24  H    Isotropic =    28.3327   Anisotropy =     6.7324

     25  H    Isotropic =    30.9168   Anisotropy =    11.6332

     26  H    Isotropic =    31.2698   Anisotropy =    15.8525

  Exact polarizability: 119.106   0.332 106.229  -0.479   2.011 100.328
 Approx polarizability: 118.079  -0.015 114.962  -0.603  -0.239 109.998

                      1                      2                      3
                      A                      A                      A
 Frequencies --     23.0475                28.9298                59.3316
 Red. masses --      3.5655                 2.8534                 4.1228
 Frc consts  --      0.0011                 0.0014                 0.0086
 IR Inten    --      1.0923                 1.9213                 0.6536

                      4                      5                      6
                      A                      A                      A
 Frequencies --     71.7230                93.4560               155.8288
 Red. masses --      3.9330                 3.4419                 2.9349
 Frc consts  --      0.0119                 0.0177                 0.0420
 IR Inten    --      4.4670                 0.3584                 5.9124

                      7                      8                      9
                      A                      A                      A
 Frequencies --    174.8538               227.2342               234.3646
 Red. masses --      2.6959                 1.4880                 1.5108
 Frc consts  --      0.0486                 0.0453                 0.0489
 IR Inten    --      6.7534                38.6864                65.9150

                     10                     11                     12
                      A                      A                      A
 Frequencies --    272.4378               290.6374               335.5162
 Red. masses --      1.8960                 1.8309                 1.9246
 Frc consts  --      0.0829                 0.0911                 0.1277
 IR Inten    --     63.6859                 5.2577                22.9579

                     13                     14                     15
                      A                      A                      A
 Frequencies --    363.5543               411.7537               494.8149
 Red. masses --      2.1964                 2.2199                 2.3738
 Frc consts  --      0.1710                 0.2218                 0.3424
 IR Inten    --     18.1724                10.0921                10.4619

                     16                     17                     18
                      A                      A                      A
 Frequencies --    528.5743               557.8882               799.7555
 Red. masses --      2.5672                 2.1861                 2.1631
 Frc consts  --      0.4226                 0.4009                 0.8152
 IR Inten    --      8.7333                12.2090                12.5926

                     19                     20                     21
                      A                      A                      A
 Frequencies --    828.6050               875.4405               888.7409
 Red. masses --      1.8434                 2.1005                 1.9279
 Frc consts  --      0.7457                 0.9485                 0.8972
 IR Inten    --     27.3078                69.7577               129.0254

                     22                     23                     24
                      A                      A                      A
 Frequencies --    901.6383               917.6883               928.9470
 Red. masses --      1.6351                 1.4272                 1.6749
 Frc consts  --      0.7832                 0.7082                 0.8516
 IR Inten    --     10.5803               123.6872                85.4665

                     25                     26                     27
                      A                      A                      A
 Frequencies --    939.2129              1009.6995              1041.6654
 Red. masses --      1.8084                 2.2398                 2.6622
 Frc consts  --      0.9399                 1.3454                 1.7020
 IR Inten    --     51.2065                36.7102                78.9924

                     28                     29                     30
                      A                      A                      A
 Frequencies --   1076.6125              1095.4004              1118.1867
 Red. masses --      2.1715                 2.1291                 2.0061
 Frc consts  --      1.4830                 1.5052                 1.4778
 IR Inten    --     50.2466                13.5023                25.2641

                     31                     32                     33
                      A                      A                      A
 Frequencies --   1124.1617              1145.2562              1159.7827
 Red. masses --      3.6968                 2.5233                 3.0134
 Frc consts  --      2.7525                 1.9500                 2.3882
 IR Inten    --    153.3307                90.6675               137.9920

                     34                     35                     36
                      A                      A                      A
 Frequencies --   1164.1708              1190.4277              1203.4161
 Red. masses --      1.9215                 1.4029                 1.4556
 Frc consts  --      1.5343                 1.1714                 1.2420
 IR Inten    --      4.3683                26.3389                 6.1942

                     37                     38                     39
                      A                      A                      A
 Frequencies --   1259.4619              1271.1231              1298.1442
 Red. masses --      1.1195                 1.1383                 1.2048
 Frc consts  --      1.0463                 1.0837                 1.1962
 IR Inten    --      7.0297                18.7026                27.8111

                     40                     41                     42
                      A                      A                      A
 Frequencies --   1331.3717              1343.4086              1348.0573
 Red. masses --      1.1451                 1.1552                 1.1487
 Frc consts  --      1.1959                 1.2283                 1.2299
 IR Inten    --     26.6076                 7.6650                17.9239

                     43                     44                     45
                      A                      A                      A
 Frequencies --   1391.1346              1401.8581              1423.5954
 Red. masses --      1.2261                 1.2636                 1.2772
 Frc consts  --      1.3980                 1.4631                 1.5251
 IR Inten    --     59.9633                 8.0718                 1.5204

                     46                     47                     48
                      A                      A                      A
 Frequencies --   1435.7994              1438.5298              1449.6627
 Red. masses --      1.4331                 1.4868                 1.5529
 Frc consts  --      1.7407                 1.8128                 1.9227
 IR Inten    --      9.9848                11.7439                10.0681

                     49                     50                     51
                      A                      A                      A
 Frequencies --   1484.5438              1490.0213              1509.4614
 Red. masses --      1.0973                 1.0890                 1.0871
 Frc consts  --      1.4248                 1.4245                 1.4594
 IR Inten    --      7.9486                 5.2984                 6.2943

                     52                     53                     54
                      A                      A                      A
 Frequencies --   1513.8225              1518.7040              1522.7110
 Red. masses --      1.0923                 1.0917                 1.0960
 Frc consts  --      1.4748                 1.4835                 1.4973
 IR Inten    --      7.2988                 7.8855                 5.8179

                     55                     56                     57
                      A                      A                      A
 Frequencies --   1645.1892              1646.1823              2969.3814
 Red. masses --      1.0871                 1.0868                 1.0722
 Frc consts  --      1.7336                 1.7353                 5.5702
 IR Inten    --     50.8887                47.1719                94.7409

                     58                     59                     60
                      A                      A                      A
 Frequencies --   2971.0310              2989.2753              2999.8321
 Red. masses --      1.0713                 1.0561                 1.0641
 Frc consts  --      5.5714                 5.5602                 5.6421
 IR Inten    --     59.4875                93.9325                60.7998

                     61                     62                     63
                      A                      A                      A
 Frequencies --   3007.8477              3014.5133              3030.6274
 Red. masses --      1.0686                 1.0662                 1.1026
 Frc consts  --      5.6963                 5.7087                 5.9668
 IR Inten    --     50.7787               102.5169               106.6300

                     64                     65                     66
                      A                      A                      A
 Frequencies --   3059.6001              3066.6966              3073.0193
 Red. masses --      1.0896                 1.0921                 1.0959
 Frc consts  --      6.0093                 6.0513                 6.0975
 IR Inten    --     66.1020                57.4089                75.4475

                     67                     68                     69
                      A                      A                      A
 Frequencies --   3085.6781              3094.4520              3486.7945
 Red. masses --      1.0988                 1.0997                 1.0506
 Frc consts  --      6.1641                 6.2043                 7.5253
 IR Inten    --     59.1989                61.0260                 1.6678

                     70                     71                     72
                      A                      A                      A
 Frequencies --   3487.9732              3566.3772              3567.1387
 Red. masses --      1.0504                 1.0915                 1.0915
 Frc consts  --      7.5296                 8.1797                 8.1833
 IR Inten    --      1.9023                 1.0132                 0.7971

 - Thermochemistry -
 -------------------
 Temperature   298.150 Kelvin.  Pressure   1.00000 Atm.
 Atom     1 has atomic number  7 and mass  14.00307

 Molecular mass:   148.12118 amu.
 Principal axes and moments of inertia in atomic units:
                           1         2         3
     Eigenvalues --   551.934204053.058304219.30958
           X            0.99997   0.00780   0.00042
           Y           -0.00781   0.99866   0.05116
           Z           -0.00002  -0.05116   0.99869
 This molecule is an asymmetric top.
 Rotational symmetry number  1.
 Warning -- assumption of classical behavior for rotation
           may cause significant error
 Rotational temperatures (Kelvin)      0.15693     0.02137     0.02053
 Rotational constants (GHZ):           3.26985     0.44528     0.42773
 Zero-point vibrational energy     615632.8 (Joules/Mol)
                                  147.13978 (Kcal/Mol)
 Warning -- explicit consideration of  17 degrees of freedom as
           vibrations may cause significant error
 Vibrational temperatures:     33.16    41.62    85.36   103.19   134.46
          (Kelvin)            224.20   251.58   326.94   337.20   391.98
                              418.16   482.73   523.07   592.42   711.93
                              760.50   802.68  1150.67  1192.18  1259.56
                             1278.70  1297.26  1320.35  1336.55  1351.32
                             1452.73  1498.72  1549.01  1576.04  1608.82
                             1617.42  1647.77  1668.67  1674.98  1712.76
                             1731.45  1812.08  1828.86  1867.74  1915.55
                             1932.87  1939.55  2001.53  2016.96  2048.24
                             2065.80  2069.72  2085.74  2135.93  2143.81
                             2171.78  2178.05  2185.08  2190.84  2367.06
                             2368.49  4272.28  4274.65  4300.90  4316.09
                             4327.62  4337.21  4360.40  4402.08  4412.29
                             4421.39  4439.60  4452.23  5016.72  5018.42
                             5131.22  5132.32

 Zero-point correction=                           0.234482 (Hartree/Particle)
 Thermal correction to Energy=                    0.247092
 Thermal correction to Enthalpy=                  0.248036
 Thermal correction to Gibbs Free Energy=         0.193415
 Sum of electronic and zero-point Energies=           -497.978723
 Sum of electronic and thermal Energies=              -497.966113
 Sum of electronic and thermal Enthalpies=            -497.965168
 Sum of electronic and thermal Free Energies=         -498.019790

                     E (Thermal)             CV                S
                      KCal/Mol        Cal/Mol-Kelvin    Cal/Mol-Kelvin
 Total                  155.053             43.873            114.961
 Electronic               0.000              0.000              0.000
 Translational            0.889              2.981             40.889
 Rotational               0.889              2.981             30.624
 Vibrational            153.275             37.911             43.448
 Vibration     1          0.593              1.985              6.353
 Vibration     2          0.593              1.984              5.901
 Vibration     3          0.597              1.974              4.479
 Vibration     4          0.598              1.967              4.106
 Vibration     5          0.602              1.954              3.586
 Vibration     6          0.620              1.896              2.600
 Vibration     7          0.627              1.873              2.383
 Vibration     8          0.651              1.800              1.901
 Vibration     9          0.654              1.788              1.845
 Vibration    10          0.675              1.724              1.581
 Vibration    11          0.687              1.691              1.470
 Vibration    12          0.717              1.605              1.233
 Vibration    13          0.737              1.547              1.107
 Vibration    14          0.776              1.445              0.920
 Vibration    15          0.850              1.262              0.671
 Vibration    16          0.884              1.187              0.590
 Vibration    17          0.913              1.122              0.528

 Optimization completed.
    -- Stationary point found.
 Normal termination of Gaussian 16 at Thu Jul 18 02:40:14 2024.
 Gaussian 16:  ES64L-G16RevA.03 25-Dec-2016

 ----------------------------------------------------------------------
 # TD(NStates=10, Root=1) B3LYP/6-31G** SCRF=(Solvent=water) volume pop
 =NPA density=current Geom=AllCheck Guess=Read
 ----------------------------------------------------------------------

 Structure from the checkpoint file:  "IWBOPFCKHIJFMS-UHFFFAOYSA-N_conf_3_2.chk"
 ----------------------------------
 IWBOPFCKHIJFMS-UHFFFAOYSA-N_conf_3
 ----------------------------------
 Charge =  0 Multiplicity = 1

                         Standard orientation:
 ---------------------------------------------------------------------
 Center     Atomic      Atomic             Coordinates (Angstroms)
 Number     Number       Type             X           Y           Z
 ---------------------------------------------------------------------
      1          7           0       -4.297774   -0.187148    0.461271
      2          6           0       -3.293239   -0.994235   -0.243714
      3          6           0       -1.893383   -0.589449    0.185374
      4          8           0       -1.690413    0.764292   -0.226110
      5          6           0       -0.547725    1.406987    0.320614
      6          6           0        0.749998    1.111776   -0.416431
      7          8           0        1.170441   -0.218691   -0.133644
      8          6           0        2.328525   -0.639416   -0.858602
      9          6           0        3.626259   -0.117354   -0.249346
     10          7           0        3.765454   -0.614515    1.125132
     11          1           0       -4.125189    0.788787    0.226974
     12          1           0       -5.220741   -0.400017    0.088568
     13          1           0       -3.353206   -0.921062   -1.342820
     14          1           0       -3.438509   -2.050035    0.014353
     15          1           0       -1.801325   -0.663065    1.279955
     16          1           0       -1.144196   -1.250821   -0.265118
     17          1           0       -0.739597    2.483264    0.248116
     18          1           0       -0.430621    1.153593    1.385033
     19          1           0        0.595536    1.240631   -1.498892
     20          1           0        1.505650    1.845569   -0.096685
     21          1           0        2.322604   -1.733108   -0.812682
     22          1           0        2.251750   -0.333875   -1.912217
     23          1           0        4.459480   -0.496744   -0.853796
     24          1           0        3.655814    0.982013   -0.332005
     25          1           0        2.955140   -0.295090    1.653364
     26          1           0        4.570812   -0.173069    1.563686
 ---------------------------------------------------------------------

 SCF Done:  E(RB3LYP) =  -498.213204893     A.U. after    1 cycles

 Excitation energies and oscillator strengths:

 Excited State   1:      Singlet-A      7.3695 eV  168.24 nm  f=0.0180  <S**2>=0.000
      40 -> 42         0.35413
      40 -> 43        -0.11786
      41 -> 42         0.56489
      41 -> 43        -0.13688
 This state for optimization and/or second-order correction.
 Total Energy, E(TD-HF/TD-DFT) =  -497.942379017
 Copying the excited state density for this state as the 1-particle RhoCI density.

 Excited State   2:      Singlet-A      7.5857 eV  163.44 nm  f=0.0145  <S**2>=0.000
      40 -> 42         0.34060
      40 -> 43         0.44461
      41 -> 42        -0.21011
      41 -> 43        -0.33952

 Excited State   3:      Singlet-A      7.9413 eV  156.13 nm  f=0.0196  <S**2>=0.000
      38 -> 42         0.18321
      39 -> 42         0.58698
      40 -> 42         0.11622
      40 -> 43        -0.17715
      41 -> 42        -0.17695
      41 -> 45        -0.11656

 Excited State   4:      Singlet-A      8.2001 eV  151.20 nm  f=0.0027  <S**2>=0.000
      38 -> 42        -0.19848
      39 -> 42        -0.17795
      40 -> 42         0.46820
      40 -> 43        -0.22727
      40 -> 45         0.12026
      41 -> 42        -0.25487
      41 -> 43         0.23967

 Excited State   5:      Singlet-A      8.2445 eV  150.38 nm  f=0.0034  <S**2>=0.000
      38 -> 42         0.47901
      39 -> 42        -0.11786
      39 -> 43        -0.37535
      39 -> 44         0.13176
      41 -> 43         0.20426
      41 -> 44        -0.15441

 Excited State   6:      Singlet-A      8.4218 eV  147.22 nm  f=0.0068  <S**2>=0.000
      38 -> 42        -0.22027
      39 -> 42         0.26247
      39 -> 43        -0.10073
      40 -> 43         0.31346
      41 -> 42         0.14716
      41 -> 43         0.43158
      41 -> 44        -0.12217
      41 -> 45         0.15445

 Excited State   7:      Singlet-A      8.5127 eV  145.65 nm  f=0.0173  <S**2>=0.000
      38 -> 42         0.25865
      39 -> 44        -0.12339
      40 -> 43         0.14278
      40 -> 45         0.17519
      41 -> 44         0.53074
      41 -> 45         0.16222

 Excited State   8:      Singlet-A      8.5688 eV  144.69 nm  f=0.0109  <S**2>=0.000
      38 -> 42        -0.11903
      39 -> 43        -0.23864
      40 -> 43        -0.23404
      40 -> 44         0.49959
      41 -> 43        -0.10755
      41 -> 45         0.15840
      41 -> 47         0.13533
      41 -> 48        -0.10635

 Excited State   9:      Singlet-A      8.6465 eV  143.39 nm  f=0.0204  <S**2>=0.000
      38 -> 42         0.21704
      38 -> 43        -0.10730
      39 -> 43         0.44129
      40 -> 44         0.30987
      41 -> 43         0.11897
      41 -> 44        -0.25000
      41 -> 45         0.13193

 Excited State  10:      Singlet-A      8.7170 eV  142.23 nm  f=0.0436  <S**2>=0.000
      39 -> 44        -0.20804
      40 -> 46         0.20929
      40 -> 47        -0.25713
      41 -> 45         0.13742
      41 -> 46         0.43490
      41 -> 47        -0.30212

 The electronic state is 1-A.
 Alpha  occ. eigenvalues --  -19.15241 -19.14815 -14.30925 -14.30773 -10.23158
 Alpha  occ. eigenvalues --  -10.22990 -10.22841 -10.22275 -10.20458 -10.20335
 Alpha  occ. eigenvalues --   -1.03639  -1.02133  -0.87447  -0.87291  -0.76595
 Alpha  occ. eigenvalues --   -0.72594  -0.69471  -0.62635  -0.58954  -0.58256
 Alpha  occ. eigenvalues --   -0.50958  -0.49311  -0.49151  -0.48560  -0.47215
 Alpha  occ. eigenvalues --   -0.46420  -0.43396  -0.42627  -0.42088  -0.39642
 Alpha  occ. eigenvalues --   -0.38482  -0.37666  -0.37493  -0.35660  -0.34881
 Alpha  occ. eigenvalues --   -0.31981  -0.31148  -0.26593  -0.25155  -0.23685
 Alpha  occ. eigenvalues --   -0.23495
 Alpha virt. eigenvalues --    0.07800   0.09460   0.10965   0.12276   0.12474
 Alpha virt. eigenvalues --    0.12759   0.13270   0.14592   0.15332   0.15757
 Alpha virt. eigenvalues --    0.16843   0.17516   0.17985   0.18605   0.19025

 Mulliken charges:
               1
     1  N   -0.640102
     2  C   -0.068657
     3  C    0.079405
     4  O   -0.511632
     5  C    0.050931
     6  C    0.075058
     7  O   -0.450001
     8  C    0.041039
     9  C   -0.085085
    10  N   -0.133659
    11  H    0.249108
    12  H    0.248384
    13  H    0.088045
    14  H    0.104285
    15  H    0.082852
    16  H    0.088953
    17  H    0.092228
    18  H    0.084714
    19  H    0.065329
    20  H   -0.007573
    21  H    0.122490
    22  H    0.079656
    23  H    0.090964
    24  H    0.101833
    25  H    0.094063
    26  H    0.057372
 Sum of Mulliken charges =  -0.00000

 Dipole moment (field-independent basis, Debye):
    X=              3.4462    Y=             -0.7318    Z=             -1.4433  Tot=              3.8072
 Quadrupole moment (field-independent basis, Debye-Ang):
   XX=            -54.8043   YY=            -61.8427   ZZ=            -65.9416
   XY=             -0.9090   XZ=              4.0920   YZ=              1.0972

 Summary of Natural Population Analysis:

                                       Natural Population
                Natural  -----------------------------------------------
    Atom  No    Charge         Core      Valence    Rydberg      Total
 -----------------------------------------------------------------------
      N    1   -0.93274      1.99968     5.91754    0.01553     7.93274
      C    2   -0.28606      1.99934     4.27268    0.01404     6.28606
      C    3   -0.12177      1.99925     4.10448    0.01804     6.12177
      O    4   -0.60745      1.99979     6.59499    0.01266     8.60745
      C    5   -0.12519      1.99924     4.10608    0.01987     6.12519
      C    6   -0.17246      1.99925     4.14917    0.02403     6.17246
      O    7   -0.57291      1.99980     6.55946    0.01365     8.57291
      C    8   -0.15390      1.99928     4.13250    0.02211     6.15390
      C    9   -0.37545      1.99926     4.35809    0.01809     6.37545
      N   10   -0.41459      1.99937     5.39556    0.01966     7.41459
      H   11    0.38581      0.00000     0.60926    0.00492     0.61419
      H   12    0.38722      0.00000     0.60953    0.00325     0.61278
      H   13    0.20768      0.00000     0.78896    0.00336     0.79232
      H   14    0.23316      0.00000     0.76478    0.00206     0.76684
      H   15    0.20151      0.00000     0.79445    0.00404     0.79849
      H   16    0.21289      0.00000     0.78151    0.00560     0.78711
      H   17    0.21983      0.00000     0.77495    0.00522     0.78017
      H   18    0.20323      0.00000     0.78950    0.00728     0.79677
      H   19    0.19572      0.00000     0.79214    0.01213     0.80428
      H   20    0.13563      0.00000     0.82964    0.03473     0.86437
      H   21    0.24234      0.00000     0.75313    0.00453     0.75766
      H   22    0.19364      0.00000     0.79303    0.01333     0.80636
      H   23    0.21697      0.00000     0.76123    0.02181     0.78303
      H   24    0.23871      0.00000     0.72430    0.03699     0.76129
      H   25    0.26175      0.00000     0.67340    0.06485     0.73825
      H   26    0.22544      0.00000     0.69886    0.07570     0.77456
 =======================================================================
   * Total *   -0.00099     19.99428    61.52923    0.47749    82.00099

 Normal termination of Gaussian 16 at Thu Jul 18 02:49:48 2024.
