 Gaussian 16, Revision A.03,

 -------------------------------------------------------
 # opt=CalcFc B3LYP/6-31G** SCRF=(Solvent=water) scf=xqc
 -------------------------------------------------------

 ----------------------------------
 IWBOPFCKHIJFMS-UHFFFAOYSA-N_conf_1
 ----------------------------------
 Symbolic Z-matrix:
 Charge =  0 Multiplicity = 1

 SCF Done:  E(RB3LYP) =  -498.210035977     A.U. after   11 cycles
 SCF Done:  E(RB3LYP) =  -498.211848371     A.U. after   10 cycles
 SCF Done:  E(RB3LYP) =  -498.211907985     A.U. after    9 cycles
 SCF Done:  E(RB3LYP) =  -498.211908616     A.U. after    9 cycles
 SCF Done:  E(RB3LYP) =  -498.211912681     A.U. after    9 cycles
 SCF Done:  E(RB3LYP) =  -498.211913070     A.U. after    7 cycles
 Optimization completed.
    -- Stationary point found.
 Normal termination of Gaussian 16 at Thu Jul 18 02:20:03 2024.

 ----------------------------------------------------------------------
 # freq B3LYP/6-31G** SCRF=(Solvent=water) volume NMR pop=NPA density=c
 urrent Geom=AllCheck Guess=Read
 ----------------------------------------------------------------------

 Structure from the checkpoint file:  "IWBOPFCKHIJFMS-UHFFFAOYSA-N_conf_1_1.chk"
 ----------------------------------
 IWBOPFCKHIJFMS-UHFFFAOYSA-N_conf_1
 ----------------------------------
 Charge =  0 Multiplicity = 1

 SCF Done:  E(RB3LYP) =  -498.211913070     A.U. after    1 cycles

      1  N    Isotropic =   240.8424   Anisotropy =    39.0175

      2  C    Isotropic =   151.3552   Anisotropy =    35.6270

      3  C    Isotropic =   117.4598   Anisotropy =    53.3823

      4  O    Isotropic =   313.3171   Anisotropy =    29.9752

      5  C    Isotropic =   126.9974   Anisotropy =    74.7973

      6  C    Isotropic =   126.6358   Anisotropy =    71.8530

      7  O    Isotropic =   319.0363   Anisotropy =    31.1569

      8  C    Isotropic =   119.4934   Anisotropy =    51.8832

      9  C    Isotropic =   149.9022   Anisotropy =    29.8547

     10  N    Isotropic =   241.6348   Anisotropy =    40.0953

     11  H    Isotropic =    31.7851   Anisotropy =    14.8362

     12  H    Isotropic =    30.6271   Anisotropy =    12.1926

     13  H    Isotropic =    28.7222   Anisotropy =     6.1700

     14  H    Isotropic =    29.6014   Anisotropy =     8.5287

     15  H    Isotropic =    28.3597   Anisotropy =     6.1172

     16  H    Isotropic =    28.2117   Anisotropy =     8.6655

     17  H    Isotropic =    28.7287   Anisotropy =     5.1522

     18  H    Isotropic =    27.7883   Anisotropy =     7.0270

     19  H    Isotropic =    28.2839   Anisotropy =     5.8108

     20  H    Isotropic =    28.0399   Anisotropy =     5.7719

     21  H    Isotropic =    28.3165   Anisotropy =     4.6413

     22  H    Isotropic =    28.4520   Anisotropy =     8.0558

     23  H    Isotropic =    29.5785   Anisotropy =     8.0539

     24  H    Isotropic =    28.8964   Anisotropy =     6.6603

     25  H    Isotropic =    30.5394   Anisotropy =    11.5996

     26  H    Isotropic =    31.8427   Anisotropy =    14.7513

  Exact polarizability: 122.226  -2.106 102.131  -5.027  -0.270  99.487
 Approx polarizability: 121.345  -0.846 111.827  -5.927  -0.550 111.202

                      1                      2                      3
                      A                      A                      A
 Frequencies --     26.1957                38.0541                52.4560
 Red. masses --      3.7164                 3.2723                 3.8589
 Frc consts  --      0.0015                 0.0028                 0.0063
 IR Inten    --      1.9290                 1.5795                 1.7578

                      4                      5                      6
                      A                      A                      A
 Frequencies --     78.8360               116.1956               125.9075
 Red. masses --      3.2779                 2.3436                 2.6302
 Frc consts  --      0.0120                 0.0186                 0.0246
 IR Inten    --      0.4654                 0.3819                 1.4442

                      7                      8                      9
                      A                      A                      A
 Frequencies --    167.4384               202.4416               253.3266
 Red. masses --      2.7399                 2.7751                 2.4762
 Frc consts  --      0.0453                 0.0670                 0.0936
 IR Inten    --      4.9923                 8.1874                36.5465

                     10                     11                     12
                      A                      A                      A
 Frequencies --    258.1633               302.4856               327.0332
 Red. masses --      1.6839                 1.3091                 1.5036
 Frc consts  --      0.0661                 0.0706                 0.0947
 IR Inten    --     53.2658                24.4920                66.7250

                     13                     14                     15
                      A                      A                      A
 Frequencies --    401.1294               449.9755               473.6921
 Red. masses --      2.3378                 2.0837                 2.7533
 Frc consts  --      0.2216                 0.2486                 0.3640
 IR Inten    --      5.2828                 6.1706                11.6638

                     16                     17                     18
                      A                      A                      A
 Frequencies --    518.3379               534.4492               800.1461
 Red. masses --      2.3198                 2.3422                 1.6254
 Frc consts  --      0.3672                 0.3942                 0.6131
 IR Inten    --     11.6581                 5.9273                24.9004

                     19                     20                     21
                      A                      A                      A
 Frequencies --    820.1403               834.7921               874.9758
 Red. masses --      1.3385                 1.7117                 2.4630
 Frc consts  --      0.5305                 0.7028                 1.1110
 IR Inten    --     19.3227                21.5436                25.1356

                     22                     23                     24
                      A                      A                      A
 Frequencies --    876.5886               942.4673               948.3292
 Red. masses --      2.5754                 1.6271                 1.4463
 Frc consts  --      1.1660                 0.8515                 0.7664
 IR Inten    --     26.4387               256.2138               183.5127

                     25                     26                     27
                      A                      A                      A
 Frequencies --    965.0581               983.9213              1042.5062
 Red. masses --      1.7682                 2.1214                 2.2396
 Frc consts  --      0.9703                 1.2100                 1.4341
 IR Inten    --     63.1188                22.7862                67.8908

                     28                     29                     30
                      A                      A                      A
 Frequencies --   1046.2741              1072.8767              1101.1285
 Red. masses --      2.2059                 3.2489                 2.7615
 Frc consts  --      1.4228                 2.2034                 1.9728
 IR Inten    --     18.0408                18.3407               147.6713

                     31                     32                     33
                      A                      A                      A
 Frequencies --   1131.9120              1142.1230              1143.4701
 Red. masses --      5.1376                 2.1926                 2.1944
 Frc consts  --      3.8783                 1.6851                 1.6905
 IR Inten    --    205.5113                59.8766                31.6197

                     34                     35                     36
                      A                      A                      A
 Frequencies --   1181.2918              1216.8556              1220.6941
 Red. masses --      1.8220                 1.4844                 1.5678
 Frc consts  --      1.4980                 1.2951                 1.3765
 IR Inten    --     22.8418                43.8084                34.7244

                     37                     38                     39
                      A                      A                      A
 Frequencies --   1261.3766              1303.8816              1306.5787
 Red. masses --      1.2511                 1.1730                 1.1644
 Frc consts  --      1.1728                 1.1750                 1.1712
 IR Inten    --     16.0868                 0.8374                28.2192

                     40                     41                     42
                      A                      A                      A
 Frequencies --   1331.8693              1358.4351              1389.0744
 Red. masses --      1.1341                 1.2483                 1.2762
 Frc consts  --      1.1852                 1.3573                 1.4509
 IR Inten    --      4.0807                39.0344                14.1095

                     43                     44                     45
                      A                      A                      A
 Frequencies --   1393.8199              1393.9319              1396.6180
 Red. masses --      1.2555                 1.2493                 1.2605
 Frc consts  --      1.4371                 1.4302                 1.4486
 IR Inten    --      5.2626                 1.6069                15.8622

                     46                     47                     48
                      A                      A                      A
 Frequencies --   1411.3841              1413.8596              1447.6437
 Red. masses --      1.2381                 1.2607                 1.4097
 Frc consts  --      1.4531                 1.4849                 1.7406
 IR Inten    --      9.2562                18.1108                 1.1636

                     49                     50                     51
                      A                      A                      A
 Frequencies --   1489.1117              1490.5645              1495.6467
 Red. masses --      1.0912                 1.0892                 1.0896
 Frc consts  --      1.4256                 1.4258                 1.4361
 IR Inten    --      2.4015                 3.5384                 1.3299

                     52                     53                     54
                      A                      A                      A
 Frequencies --   1497.4222              1517.0967              1536.2421
 Red. masses --      1.0926                 1.0882                 1.0872
 Frc consts  --      1.4435                 1.4756                 1.5118
 IR Inten    --      1.2904                 2.1317                 7.1080

                     55                     56                     57
                      A                      A                      A
 Frequencies --   1662.9311              1663.8858              2992.2988
 Red. masses --      1.0863                 1.0857                 1.0566
 Frc consts  --      1.7699                 1.7709                 5.5740
 IR Inten    --     35.1939                34.7850                42.4643

                     58                     59                     60
                      A                      A                      A
 Frequencies --   2999.2695              3014.3377              3028.4562
 Red. masses --      1.0637                 1.0616                 1.0891
 Frc consts  --      5.6375                 5.6832                 5.8853
 IR Inten    --    101.0111                83.4930                44.2419

                     61                     62                     63
                      A                      A                      A
 Frequencies --   3033.4021              3039.2911              3042.8914
 Red. masses --      1.0738                 1.0619                 1.0649
 Frc consts  --      5.8216                 5.7793                 5.8091
 IR Inten    --     17.4947                93.1861                44.7768

                     64                     65                     66
                      A                      A                      A
 Frequencies --   3070.7107              3072.5600              3085.1774
 Red. masses --      1.0989                 1.1018                 1.1045
 Frc consts  --      6.1051                 6.1284                 6.1940
 IR Inten    --     39.0011                38.1817               115.3911

                     67                     68                     69
                      A                      A                      A
 Frequencies --   3086.9125              3095.5085              3468.7596
 Red. masses --      1.1041                 1.1049                 1.0502
 Frc consts  --      6.1989                 6.2378                 7.4449
 IR Inten    --     93.6624                73.6243                 1.8884

                     70                     71                     72
                      A                      A                      A
 Frequencies --   3469.2581              3546.3078              3546.6560
 Red. masses --      1.0502                 1.0910                 1.0910
 Frc consts  --      7.4470                 8.0840                 8.0857
 IR Inten    --      1.5640                 0.6538                 0.7318

 - Thermochemistry -
 -------------------
 Temperature   298.150 Kelvin.  Pressure   1.00000 Atm.
 Atom     1 has atomic number  7 and mass  14.00307

 Molecular mass:   148.12118 amu.
 Principal axes and moments of inertia in atomic units:
                           1         2         3
     Eigenvalues --   578.456804359.978844610.78963
           X            0.99999  -0.00523   0.00060
           Y            0.00524   0.99997  -0.00476
           Z           -0.00057   0.00477   0.99999
 This molecule is an asymmetric top.
 Rotational symmetry number  1.
 Warning -- assumption of classical behavior for rotation
           may cause significant error
 Rotational temperatures (Kelvin)      0.14973     0.01987     0.01879
 Rotational constants (GHZ):           3.11992     0.41393     0.39142
 Zero-point vibrational energy     616225.4 (Joules/Mol)
                                  147.28140 (Kcal/Mol)
 Warning -- explicit consideration of  17 degrees of freedom as
           vibrations may cause significant error
 Vibrational temperatures:     37.69    54.75    75.47   113.43   167.18
          (Kelvin)            181.15   240.91   291.27   364.48   371.44
                              435.21   470.53   577.14   647.41   681.54
                              745.77   768.95  1151.23  1180.00  1201.08
                             1258.89  1261.22  1356.00  1364.43  1388.50
                             1415.64  1499.93  1505.36  1543.63  1584.28
                             1628.57  1643.26  1645.20  1699.62  1750.78
                             1756.31  1814.84  1875.99  1879.88  1916.26
                             1954.49  1998.57  2005.40  2005.56  2009.42
                             2030.67  2034.23  2082.84  2142.50  2144.59
                             2151.90  2154.46  2182.76  2210.31  2392.59
                             2393.96  4305.25  4315.28  4336.96  4357.27
                             4364.39  4372.86  4378.04  4418.07  4420.73
                             4438.88  4441.38  4453.75  4990.77  4991.49
                             5102.35  5102.85

 Zero-point correction=                           0.234708 (Hartree/Particle)
 Thermal correction to Energy=                    0.247318
 Thermal correction to Enthalpy=                  0.248262
 Thermal correction to Gibbs Free Energy=         0.193847
 Sum of electronic and zero-point Energies=           -497.977205
 Sum of electronic and thermal Energies=              -497.964595
 Sum of electronic and thermal Enthalpies=            -497.963651
 Sum of electronic and thermal Free Energies=         -498.018066

                     E (Thermal)             CV                S
                      KCal/Mol        Cal/Mol-Kelvin    Cal/Mol-Kelvin
 Total                  155.195             43.954            114.527
 Electronic               0.000              0.000              0.000
 Translational            0.889              2.981             40.889
 Rotational               0.889              2.981             30.831
 Vibrational            153.417             37.993             42.807
 Vibration     1          0.593              1.985              6.098
 Vibration     2          0.594              1.982              5.358
 Vibration     3          0.596              1.977              4.723
 Vibration     4          0.600              1.963              3.920
 Vibration     5          0.608              1.936              3.163
 Vibration     6          0.611              1.927              3.008
 Vibration     7          0.624              1.883              2.464
 Vibration     8          0.639              1.836              2.111
 Vibration     9          0.664              1.757              1.707
 Vibration    10          0.667              1.749              1.674
 Vibration    11          0.694              1.669              1.403
 Vibration    12          0.711              1.621              1.275
 Vibration    13          0.767              1.468              0.959
 Vibration    14          0.809              1.361              0.796
 Vibration    15          0.830              1.308              0.727
 Vibration    16          0.873              1.209              0.614
 Vibration    17          0.889              1.174              0.577

 Optimization completed.
    -- Stationary point found.
 Normal termination of Gaussian 16 at Thu Jul 18 02:25:51 2024.
 Gaussian 16:  ES64L-G16RevA.03 25-Dec-2016

 ----------------------------------------------------------------------
 # TD(NStates=10, Root=1) B3LYP/6-31G** SCRF=(Solvent=water) volume pop
 =NPA density=current Geom=AllCheck Guess=Read
 ----------------------------------------------------------------------

 Structure from the checkpoint file:  "IWBOPFCKHIJFMS-UHFFFAOYSA-N_conf_1_2.chk"
 ----------------------------------
 IWBOPFCKHIJFMS-UHFFFAOYSA-N_conf_1
 ----------------------------------
 Charge =  0 Multiplicity = 1

                         Standard orientation:
 ---------------------------------------------------------------------
 Center     Atomic      Atomic             Coordinates (Angstroms)
 Number     Number       Type             X           Y           Z
 ---------------------------------------------------------------------
      1          7           0        3.584080    1.602047   -0.345016
      2          6           0        3.527111    0.466697    0.583776
      3          6           0        3.016996   -0.841346   -0.030370
      4          8           0        1.720888   -0.704690   -0.614705
      5          6           0        0.646682   -0.759713    0.314293
      6          6           0       -0.651527   -0.723487   -0.489756
      7          8           0       -1.781677   -0.800309    0.373019
      8          6           0       -2.298448    0.464203    0.803288
      9          6           0       -3.326145    1.017588   -0.188193
     10          7           0       -4.466084    0.131972   -0.453161
     11          1           0        4.245223    1.381800   -1.089603
     12          1           0        2.678932    1.664492   -0.810229
     13          1           0        2.891775    0.748756    1.432359
     14          1           0        4.528936    0.289657    0.992954
     15          1           0        3.015175   -1.647502    0.719641
     16          1           0        3.678787   -1.144346   -0.850213
     17          1           0        0.689758   -1.688012    0.904116
     18          1           0        0.675384    0.083096    1.020238
     19          1           0       -0.675945    0.179123   -1.114230
     20          1           0       -0.690137   -1.589661   -1.158254
     21          1           0       -1.486493    1.187215    0.965165
     22          1           0       -2.777884    0.279232    1.771822
     23          1           0       -3.698845    1.976797    0.191077
     24          1           0       -2.829089    1.231280   -1.143047
     25          1           0       -4.091037   -0.787419   -0.684715
     26          1           0       -4.982212   -0.006294    0.415421
 ---------------------------------------------------------------------

 SCF Done:  E(RB3LYP) =  -498.211913070     A.U. after    1 cycles

 Excitation energies and oscillator strengths:

 Excited State   1:      Singlet-A      7.3535 eV  168.61 nm  f=0.0243  <S**2>=0.000
      40 -> 42        -0.34246
      40 -> 43        -0.34331
      41 -> 42         0.24552
      41 -> 43         0.42629
 This state for optimization and/or second-order correction.
 Total Energy, E(TD-HF/TD-DFT) =  -497.941678540
 Copying the excited state density for this state as the 1-particle RhoCI density.

 Excited State   2:      Singlet-A      7.3816 eV  167.96 nm  f=0.0142  <S**2>=0.000
      40 -> 42         0.25155
      40 -> 43        -0.29522
      40 -> 44         0.10800
      41 -> 42         0.47176
      41 -> 43        -0.30499
      41 -> 44         0.10384

 Excited State   3:      Singlet-A      7.8367 eV  158.21 nm  f=0.0086  <S**2>=0.000
      39 -> 43        -0.15250
      40 -> 42         0.46011
      40 -> 43        -0.25233
      41 -> 42        -0.22326
      41 -> 43         0.31144
      41 -> 44         0.17818

 Excited State   4:      Singlet-A      7.8964 eV  157.01 nm  f=0.0080  <S**2>=0.000
      39 -> 42        -0.10595
      39 -> 43        -0.11490
      40 -> 42         0.19250
      40 -> 43         0.42668
      41 -> 42         0.37709
      41 -> 43         0.29597
      41 -> 45         0.12787

 Excited State   5:      Singlet-A      8.0949 eV  153.16 nm  f=0.0085  <S**2>=0.000
      38 -> 42         0.17686
      38 -> 43        -0.19393
      39 -> 42         0.28712
      39 -> 43        -0.24473
      40 -> 42        -0.13840
      40 -> 44         0.32577
      41 -> 44         0.36363

 Excited State   6:      Singlet-A      8.2097 eV  151.02 nm  f=0.0094  <S**2>=0.000
      38 -> 42         0.25059
      38 -> 43         0.35334
      39 -> 42        -0.19720
      39 -> 43        -0.26049
      40 -> 42        -0.15644
      40 -> 45        -0.30445
      41 -> 45         0.24503

 Excited State   7:      Singlet-A      8.4473 eV  146.77 nm  f=0.0805  <S**2>=0.000
      38 -> 42        -0.19990
      38 -> 43         0.18066
      39 -> 42        -0.31036
      39 -> 43         0.27554
      40 -> 44         0.23492
      41 -> 44         0.36548
      41 -> 46        -0.11131

 Excited State   8:      Singlet-A      8.4994 eV  145.87 nm  f=0.0784  <S**2>=0.000
      38 -> 42        -0.18688
      38 -> 43        -0.25978
      39 -> 42         0.10787
      39 -> 43         0.20963
      40 -> 45        -0.37185
      41 -> 45         0.39026

 Excited State   9:      Singlet-A      8.5875 eV  144.38 nm  f=0.0240  <S**2>=0.000
      38 -> 42         0.37415
      38 -> 43        -0.25356
      38 -> 44        -0.11373
      39 -> 42        -0.23037
      39 -> 43         0.12223
      40 -> 46         0.15780
      40 -> 48        -0.11788
      41 -> 46        -0.32836

 Excited State  10:      Singlet-A      8.6369 eV  143.55 nm  f=0.0167  <S**2>=0.000
      38 -> 42         0.15242
      38 -> 43        -0.25942
      39 -> 42        -0.33127
      40 -> 46        -0.16324
      40 -> 47         0.10384
      40 -> 48         0.13341
      41 -> 46         0.43389

 The electronic state is 1-A.
 Alpha  occ. eigenvalues --  -19.15256 -19.15255 -14.31091 -14.31048 -10.23143
 Alpha  occ. eigenvalues --  -10.22929 -10.22780 -10.22744 -10.20469 -10.20448
 Alpha  occ. eigenvalues --   -1.03546  -1.02609  -0.87608  -0.87521  -0.76374
 Alpha  occ. eigenvalues --   -0.72250  -0.69193  -0.63663  -0.59632  -0.58276
 Alpha  occ. eigenvalues --   -0.50816  -0.50530  -0.48732  -0.47971  -0.47186
 Alpha  occ. eigenvalues --   -0.45001  -0.44679  -0.43168  -0.41217  -0.40489
 Alpha  occ. eigenvalues --   -0.39929  -0.38268  -0.36842  -0.35200  -0.34548
 Alpha  occ. eigenvalues --   -0.31832  -0.31134  -0.26958  -0.26670  -0.23584
 Alpha  occ. eigenvalues --   -0.23278
 Alpha virt. eigenvalues --    0.07830   0.07892   0.11006   0.11510   0.11874
 Alpha virt. eigenvalues --    0.12792   0.13595   0.13818   0.15778   0.15981
 Alpha virt. eigenvalues --    0.16176   0.16779   0.17929   0.18773   0.19157

 Mulliken charges:
               1
     1  N   -0.185088
     2  C   -0.095755
     3  C    0.044533
     4  O   -0.421445
     5  C    0.052203
     6  C    0.024316
     7  O   -0.504363
     8  C    0.041483
     9  C   -0.071918
    10  N   -0.624614
    11  H    0.092157
    12  H    0.064904
    13  H    0.096638
    14  H    0.093652
    15  H    0.111349
    16  H    0.102202
    17  H    0.069920
    18  H    0.011490
    19  H    0.089530
    20  H    0.107333
    21  H    0.088728
    22  H    0.102721
    23  H    0.107465
    24  H    0.109082
    25  H    0.246512
    26  H    0.246964
 Sum of Mulliken charges =  -0.00000

 Dipole moment (field-independent basis, Debye):
    X=              3.3826    Y=              0.2120    Z=              1.7947  Tot=              3.8350
 Quadrupole moment (field-independent basis, Debye-Ang):
   XX=            -63.5045   YY=            -64.1611   ZZ=            -65.0283
   XY=             -1.7064   XZ=             -5.5968   YZ=              1.0568

 Summary of Natural Population Analysis:

                                       Natural Population
                Natural  -----------------------------------------------
    Atom  No    Charge         Core      Valence    Rydberg      Total
 -----------------------------------------------------------------------
      N    1   -0.50093      1.99941     5.47943    0.02209     7.50093
      C    2   -0.37434      1.99933     4.35362    0.02139     6.37434
      C    3   -0.14086      1.99924     4.12039    0.02123     6.14086
      O    4   -0.52489      1.99979     6.51126    0.01384     8.52489
      C    5   -0.18708      1.99928     4.15771    0.03009     6.18708
      C    6   -0.13991      1.99925     4.11719    0.02347     6.13991
      O    7   -0.60598      1.99981     6.59339    0.01278     8.60598
      C    8   -0.13354      1.99924     4.11622    0.01807     6.13354
      C    9   -0.29992      1.99935     4.28486    0.01571     6.29992
      N   10   -0.91776      1.99970     5.90256    0.01551     7.91776
      H   11    0.26471      0.00000     0.67046    0.06483     0.73529
      H   12    0.24805      0.00000     0.68330    0.06865     0.75195
      H   13    0.22820      0.00000     0.74581    0.02599     0.77180
      H   14    0.21977      0.00000     0.75833    0.02190     0.78023
      H   15    0.22094      0.00000     0.76499    0.01406     0.77906
      H   16    0.22581      0.00000     0.75767    0.01652     0.77419
      H   17    0.19480      0.00000     0.79254    0.01267     0.80520
      H   18    0.14119      0.00000     0.82488    0.03393     0.85881
      H   19    0.20091      0.00000     0.79118    0.00792     0.79909
      H   20    0.22692      0.00000     0.77026    0.00282     0.77308
      H   21    0.20553      0.00000     0.78834    0.00613     0.79447
      H   22    0.22280      0.00000     0.77459    0.00261     0.77720
      H   23    0.23511      0.00000     0.76254    0.00235     0.76489
      H   24    0.22580      0.00000     0.77185    0.00235     0.77420
      H   25    0.38358      0.00000     0.61061    0.00582     0.61642
      H   26    0.38111      0.00000     0.61484    0.00405     0.61889
 =======================================================================
   * Total *   -0.00000     19.99442    61.51879    0.48679    82.00000

 Normal termination of Gaussian 16 at Thu Jul 18 02:33:42 2024.
