 Gaussian 16, Revision A.03,

 -------------------------------------------------------
 # opt=CalcFc B3LYP/6-31G** SCRF=(Solvent=water) scf=xqc
 -------------------------------------------------------

 ----------------------------------
 IWBOPFCKHIJFMS-UHFFFAOYSA-N_conf_0
 ----------------------------------
 Symbolic Z-matrix:
 Charge =  0 Multiplicity = 1

 SCF Done:  E(RB3LYP) =  -498.204973697     A.U. after   11 cycles
 SCF Done:  E(RB3LYP) =  -498.208823987     A.U. after    9 cycles
 SCF Done:  E(RB3LYP) =  -498.209004586     A.U. after    9 cycles
 SCF Done:  E(RB3LYP) =  -498.209008333     A.U. after    8 cycles
 SCF Done:  E(RB3LYP) =  -498.209008622     A.U. after    7 cycles
 SCF Done:  E(RB3LYP) =  -498.209008665     A.U. after    7 cycles
 SCF Done:  E(RB3LYP) =  -498.209008661     A.U. after    5 cycles
 Optimization completed.
    -- Stationary point found.
 Normal termination of Gaussian 16 at Thu Jul 18 02:10:08 2024.

 ----------------------------------------------------------------------
 # freq B3LYP/6-31G** SCRF=(Solvent=water) volume NMR pop=NPA density=c
 urrent Geom=AllCheck Guess=Read
 ----------------------------------------------------------------------

 Structure from the checkpoint file:  "IWBOPFCKHIJFMS-UHFFFAOYSA-N_conf_0_1.chk"
 ----------------------------------
 IWBOPFCKHIJFMS-UHFFFAOYSA-N_conf_0
 ----------------------------------
 Charge =  0 Multiplicity = 1

 SCF Done:  E(RB3LYP) =  -498.209008661     A.U. after    1 cycles

      1  N    Isotropic =   236.1670   Anisotropy =    35.4787

      2  C    Isotropic =   146.5839   Anisotropy =    24.3557

      3  C    Isotropic =   120.1706   Anisotropy =    58.9561

      4  O    Isotropic =   300.5366   Anisotropy =    40.7763

      5  C    Isotropic =   123.4411   Anisotropy =    74.3783

      6  C    Isotropic =   124.2086   Anisotropy =    76.2314

      7  O    Isotropic =   302.6138   Anisotropy =    36.6890

      8  C    Isotropic =   118.8961   Anisotropy =    77.0703

      9  C    Isotropic =   147.8908   Anisotropy =    39.1668

     10  N    Isotropic =   241.8961   Anisotropy =    26.8458

     11  H    Isotropic =    31.1758   Anisotropy =    15.2902

     12  H    Isotropic =    31.6509   Anisotropy =    12.8042

     13  H    Isotropic =    28.7765   Anisotropy =     8.3076

     14  H    Isotropic =    29.0097   Anisotropy =     6.1883

     15  H    Isotropic =    28.4932   Anisotropy =     5.9156

     16  H    Isotropic =    27.9892   Anisotropy =     5.2151

     17  H    Isotropic =    28.3370   Anisotropy =     4.8337

     18  H    Isotropic =    27.8468   Anisotropy =     5.8647

     19  H    Isotropic =    28.3949   Anisotropy =     5.1063

     20  H    Isotropic =    27.9305   Anisotropy =     6.8910

     21  H    Isotropic =    28.4292   Anisotropy =     5.4226

     22  H    Isotropic =    28.2846   Anisotropy =     4.6679

     23  H    Isotropic =    29.0847   Anisotropy =     5.0453

     24  H    Isotropic =    28.7238   Anisotropy =     5.9580

     25  H    Isotropic =    31.0836   Anisotropy =    15.3464

     26  H    Isotropic =    31.5862   Anisotropy =    13.4334

  Exact polarizability: 125.957  -0.270  98.661  -0.360  -2.537  99.321
 Approx polarizability: 119.162   0.574 108.838   0.999  -2.409 111.268

                      1                      2                      3
                      A                      A                      A
 Frequencies --     24.1710                33.8208                50.3844
 Red. masses --      3.3195                 3.2579                 2.2918
 Frc consts  --      0.0011                 0.0022                 0.0034
 IR Inten    --      1.1302                 2.0783                 9.8198

                      4                      5                      6
                      A                      A                      A
 Frequencies --     80.0632               108.9885               120.6059
 Red. masses --      3.3661                 3.7922                 2.1842
 Frc consts  --      0.0127                 0.0265                 0.0187
 IR Inten    --      0.2972                 5.0209                 2.8669

                      7                      8                      9
                      A                      A                      A
 Frequencies --    143.6686               153.5896               209.0889
 Red. masses --      2.9905                 3.0107                 1.4765
 Frc consts  --      0.0364                 0.0418                 0.0380
 IR Inten    --     10.1839                 6.0028                62.5628

                     10                     11                     12
                      A                      A                      A
 Frequencies --    244.9876               272.7284               275.1088
 Red. masses --      1.1868                 2.0356                 2.7946
 Frc consts  --      0.0420                 0.0892                 0.1246
 IR Inten    --     37.9612                24.1527                39.0398

                     13                     14                     15
                      A                      A                      A
 Frequencies --    303.2270               382.8586               459.3911
 Red. masses --      2.4005                 3.4556                 3.4464
 Frc consts  --      0.1300                 0.2984                 0.4285
 IR Inten    --      2.9655                 3.0786                 9.9122

                     16                     17                     18
                      A                      A                      A
 Frequencies --    495.7871               583.4336               810.6064
 Red. masses --      3.4499                 3.2544                 1.2146
 Frc consts  --      0.4996                 0.6527                 0.4702
 IR Inten    --      3.2616                12.9245                15.6729

                     19                     20                     21
                      A                      A                      A
 Frequencies --    821.8607               833.3624               882.8533
 Red. masses --      1.1381                 1.3135                 2.5431
 Frc consts  --      0.4529                 0.5375                 1.1679
 IR Inten    --      4.7929                68.6670                80.0911

                     22                     23                     24
                      A                      A                      A
 Frequencies --    896.3228               945.2921               994.7567
 Red. masses --      1.2966                 1.6457                 2.0006
 Frc consts  --      0.6137                 0.8664                 1.1664
 IR Inten    --    218.8923               101.2367                 0.9346

                     25                     26                     27
                      A                      A                      A
 Frequencies --   1012.1471              1021.7101              1067.5521
 Red. masses --      2.5850                 2.0235                 2.1145
 Frc consts  --      1.5603                 1.2445                 1.4198
 IR Inten    --     33.2444                28.0446                10.3430

                     28                     29                     30
                      A                      A                      A
 Frequencies --   1075.6581              1088.7105              1102.5939
 Red. masses --      2.5915                 3.0015                 2.6229
 Frc consts  --      1.7667                 2.0961                 1.8787
 IR Inten    --      3.2119                18.5658                53.9270

                     31                     32                     33
                      A                      A                      A
 Frequencies --   1143.3664              1147.9004              1153.0714
 Red. masses --      3.7631                 2.1142                 7.0967
 Frc consts  --      2.8985                 1.6414                 5.5593
 IR Inten    --    171.3029                 4.7774               347.0652

                     34                     35                     36
                      A                      A                      A
 Frequencies --   1180.7191              1211.9736              1223.2608
 Red. masses --      1.7087                 1.2693                 1.4062
 Frc consts  --      1.4035                 1.0985                 1.2398
 IR Inten    --     13.5301                 4.0204                 1.8041

                     37                     38                     39
                      A                      A                      A
 Frequencies --   1267.5212              1292.8586              1308.4983
 Red. masses --      1.2508                 1.2557                 1.0962
 Frc consts  --      1.1840                 1.2367                 1.1058
 IR Inten    --     28.9277                10.9130                 2.9987

                     40                     41                     42
                      A                      A                      A
 Frequencies --   1318.7582              1322.9303              1338.8330
 Red. masses --      1.1175                 1.1061                 1.2161
 Frc consts  --      1.1451                 1.1406                 1.2843
 IR Inten    --      5.7929                 8.7654                25.9010

                     43                     44                     45
                      A                      A                      A
 Frequencies --   1355.7558              1389.4238              1419.4086
 Red. masses --      1.2222                 1.2870                 1.3006
 Frc consts  --      1.3236                 1.4639                 1.5439
 IR Inten    --     34.2359                 2.7169                24.0449

                     46                     47                     48
                      A                      A                      A
 Frequencies --   1438.2894              1450.3898              1468.8624
 Red. masses --      1.4310                 1.5248                 1.5481
 Frc consts  --      1.7441                 1.8899                 1.9680
 IR Inten    --      3.2785                 7.1912                 2.1802

                     49                     50                     51
                      A                      A                      A
 Frequencies --   1503.9557              1506.4520              1516.7495
 Red. masses --      1.0879                 1.0828                 1.0824
 Frc consts  --      1.4498                 1.4478                 1.4672
 IR Inten    --      6.9149                 0.8492                 3.9179

                     52                     53                     54
                      A                      A                      A
 Frequencies --   1524.4868              1531.4841              1544.7591
 Red. masses --      1.0935                 1.0891                 1.0898
 Frc consts  --      1.4973                 1.5050                 1.5322
 IR Inten    --     12.6865                 9.1464                 0.1715

                     55                     56                     57
                      A                      A                      A
 Frequencies --   1657.3169              1660.1063              2966.2442
 Red. masses --      1.0878                 1.0875                 1.0688
 Frc consts  --      1.7604                 1.7659                 5.5405
 IR Inten    --     36.4872                35.7097                62.5871

                     58                     59                     60
                      A                      A                      A
 Frequencies --   2969.5502              2978.9110              2980.7087
 Red. masses --      1.0595                 1.0641                 1.0711
 Frc consts  --      5.5049                 5.5633                 5.6066
 IR Inten    --     71.7569               100.2256                99.1850

                     61                     62                     63
                      A                      A                      A
 Frequencies --   2985.5300              3008.8279              3012.4613
 Red. masses --      1.0577                 1.0788                 1.0915
 Frc consts  --      5.5548                 5.7541                 5.8363
 IR Inten    --     51.5030                99.3824               131.7743

                     64                     65                     66
                      A                      A                      A
 Frequencies --   3017.3857              3026.4909              3072.7621
 Red. masses --      1.1012                 1.0963                 1.0903
 Frc consts  --      5.9072                 5.9166                 6.0652
 IR Inten    --     90.8844                75.4677                61.5032

                     67                     68                     69
                      A                      A                      A
 Frequencies --   3077.7397              3088.4565              3479.5242
 Red. masses --      1.0932                 1.1006                 1.0513
 Frc consts  --      6.1012                 6.1852                 7.4990
 IR Inten    --     72.1402                74.4026                 0.7346

                     70                     71                     72
                      A                      A                      A
 Frequencies --   3488.2641              3559.0145              3567.3932
 Red. masses --      1.0515                 1.0911                 1.0912
 Frc consts  --      7.5383                 8.1429                 8.1817
 IR Inten    --      0.5315                 0.0068                 0.3447

 - Thermochemistry -
 -------------------
 Temperature   298.150 Kelvin.  Pressure   1.00000 Atm.
 Atom     1 has atomic number  7 and mass  14.00307

 Molecular mass:   148.12118 amu.
 Principal axes and moments of inertia in atomic units:
                           1         2         3
     Eigenvalues --   261.605065814.079025919.18904
           X            0.99998  -0.00501  -0.00423
           Y            0.00478   0.99859  -0.05285
           Z            0.00448   0.05283   0.99859
 This molecule is an asymmetric top.
 Rotational symmetry number  1.
 Rotational temperatures (Kelvin)      0.33109     0.01490     0.01463
 Rotational constants (GHZ):           6.89872     0.31041     0.30490
 Zero-point vibrational energy     613993.7 (Joules/Mol)
                                  146.74801 (Kcal/Mol)
 Warning -- explicit consideration of  17 degrees of freedom as
           vibrations may cause significant error
 Vibrational temperatures:     34.78    48.66    72.49   115.19   156.81
          (Kelvin)            173.52   206.71   220.98   300.83   352.48
                              392.40   395.82   436.28   550.85   660.96
                              713.33   839.43  1166.28  1182.47  1199.02
                             1270.23  1289.61  1360.06  1431.23  1456.25
                             1470.01  1535.97  1547.63  1566.41  1586.39
                             1645.05  1651.57  1659.01  1698.79  1743.76
                             1760.00  1823.68  1860.14  1882.64  1897.40
                             1903.40  1926.28  1950.63  1999.07  2042.21
                             2069.38  2086.79  2113.37  2163.86  2167.45
                             2182.26  2193.40  2203.46  2222.56  2384.51
                             2388.52  4267.76  4272.52  4285.99  4288.57
                             4295.51  4329.03  4334.26  4341.34  4354.45
                             4421.02  4428.18  4443.60  5006.26  5018.83
                             5120.63  5132.68

 Zero-point correction=                           0.233858 (Hartree/Particle)
 Thermal correction to Energy=                    0.246943
 Thermal correction to Enthalpy=                  0.247887
 Thermal correction to Gibbs Free Energy=         0.192203
 Sum of electronic and zero-point Energies=           -497.975151
 Sum of electronic and thermal Energies=              -497.962065
 Sum of electronic and thermal Enthalpies=            -497.961121
 Sum of electronic and thermal Free Energies=         -498.016805

                     E (Thermal)             CV                S
                      KCal/Mol        Cal/Mol-Kelvin    Cal/Mol-Kelvin
 Total                  154.959             44.327            117.197
 Electronic               0.000              0.000              0.000
 Translational            0.889              2.981             40.889
 Rotational               0.889              2.981             30.577
 Vibrational            153.182             38.365             45.731
 Vibration     1          0.593              1.985              6.258
 Vibration     2          0.594              1.983              5.592
 Vibration     3          0.595              1.977              4.802
 Vibration     4          0.600              1.963              3.889
 Vibration     5          0.606              1.942              3.287
 Vibration     6          0.609              1.932              3.091
 Vibration     7          0.616              1.909              2.754
 Vibration     8          0.619              1.899              2.627
 Vibration     9          0.642              1.827              2.052
 Vibration    10          0.660              1.771              1.766
 Vibration    11          0.676              1.724              1.579
 Vibration    12          0.677              1.719              1.564
 Vibration    13          0.695              1.668              1.399
 Vibration    14          0.752              1.507              1.028
 Vibration    15          0.817              1.340              0.768
 Vibration    16          0.851              1.259              0.669
 Vibration    17          0.940              1.067              0.479

 Optimization completed.
    -- Stationary point found.
 Normal termination of Gaussian 16 at Thu Jul 18 02:16:31 2024.
 Gaussian 16:  ES64L-G16RevA.03 25-Dec-2016

 ----------------------------------------------------------------------
 # TD(NStates=10, Root=1) B3LYP/6-31G** SCRF=(Solvent=water) volume pop
 =NPA density=current Geom=AllCheck Guess=Read
 ----------------------------------------------------------------------

 Structure from the checkpoint file:  "IWBOPFCKHIJFMS-UHFFFAOYSA-N_conf_0_2.chk"
 ----------------------------------
 IWBOPFCKHIJFMS-UHFFFAOYSA-N_conf_0
 ----------------------------------
 Charge =  0 Multiplicity = 1

                         Standard orientation:
 ---------------------------------------------------------------------
 Center     Atomic      Atomic             Coordinates (Angstroms)
 Number     Number       Type             X           Y           Z
 ---------------------------------------------------------------------
      1          7           0       -4.884540   -0.362233   -0.046715
      2          6           0       -3.992985    0.804472   -0.014698
      3          6           0       -2.604330    0.449406    0.496817
      4          8           0       -1.962624   -0.423359   -0.427975
      5          6           0       -0.684275   -0.880051   -0.013853
      6          6           0        0.421354    0.128466   -0.327712
      7          8           0        1.652359   -0.454595    0.065778
      8          6           0        2.770075    0.389243   -0.170109
      9          6           0        4.027789   -0.337841    0.290728
     10          7           0        5.204627    0.508196    0.053785
     11          1           0       -5.779367   -0.080284   -0.441854
     12          1           0       -5.092900   -0.643020    0.910683
     13          1           0       -4.365134    1.635573    0.608155
     14          1           0       -3.896767    1.192756   -1.035262
     15          1           0       -2.675274   -0.036497    1.484328
     16          1           0       -2.030203    1.377862    0.631454
     17          1           0       -0.675277   -1.117060    1.060262
     18          1           0       -0.485048   -1.806630   -0.562533
     19          1           0        0.417634    0.354566   -1.405728
     20          1           0        0.254312    1.075363    0.209066
     21          1           0        2.843870    0.635013   -1.243103
     22          1           0        2.665063    1.339093    0.376653
     23          1           0        3.947861   -0.528269    1.366727
     24          1           0        4.066530   -1.320331   -0.206953
     25          1           0        6.019318    0.067536    0.474654
     26          1           0        5.401119    0.534056   -0.945491
 ---------------------------------------------------------------------

 SCF Done:  E(RB3LYP) =  -498.209008661     A.U. after    1 cycles

 Excitation energies and oscillator strengths:

 Excited State   1:      Singlet-A      7.4167 eV  167.17 nm  f=0.0140  <S**2>=0.000
      40 -> 42         0.49800
      40 -> 43         0.39005
      40 -> 44         0.14432
      41 -> 42         0.22511
 This state for optimization and/or second-order correction.
 Total Energy, E(TD-HF/TD-DFT) =  -497.936450276
 Copying the excited state density for this state as the 1-particle RhoCI density.

 Excited State   2:      Singlet-A      7.4289 eV  166.89 nm  f=0.0046  <S**2>=0.000
      40 -> 42         0.22541
      41 -> 42        -0.40784
      41 -> 43         0.47320
      41 -> 45        -0.17914

 Excited State   3:      Singlet-A      7.9075 eV  156.79 nm  f=0.0145  <S**2>=0.000
      38 -> 43         0.11878
      39 -> 42         0.49542
      39 -> 44        -0.13812
      39 -> 45        -0.10093
      40 -> 42         0.11057
      40 -> 43        -0.12209
      40 -> 44        -0.15415
      41 -> 42         0.24992
      41 -> 43         0.10018
      41 -> 44        -0.14151
      41 -> 45        -0.20514

 Excited State   4:      Singlet-A      8.0339 eV  154.33 nm  f=0.0220  <S**2>=0.000
      38 -> 42         0.46459
      38 -> 44        -0.22077
      39 -> 42         0.12830
      39 -> 43         0.16697
      39 -> 44        -0.16029
      40 -> 42         0.12726
      40 -> 44        -0.25432
      41 -> 42        -0.18041
      41 -> 45         0.17401

 Excited State   5:      Singlet-A      8.1470 eV  152.18 nm  f=0.0019  <S**2>=0.000
      38 -> 42         0.19724
      39 -> 42         0.26455
      40 -> 42        -0.20646
      40 -> 43         0.10346
      40 -> 44         0.53840
      41 -> 44         0.11948

 Excited State   6:      Singlet-A      8.1891 eV  151.40 nm  f=0.0147  <S**2>=0.000
      38 -> 42         0.22055
      39 -> 42        -0.21513
      39 -> 43         0.20235
      39 -> 44        -0.10803
      39 -> 45         0.11412
      40 -> 42        -0.15738
      41 -> 42         0.35746
      41 -> 43         0.31333
      41 -> 44        -0.20255
      41 -> 45        -0.13409

 Excited State   7:      Singlet-A      8.3437 eV  148.60 nm  f=0.0322  <S**2>=0.000
      38 -> 42         0.29900
      39 -> 44         0.38789
      40 -> 42         0.14495
      40 -> 43        -0.22243
      41 -> 42         0.13567
      41 -> 44         0.23778
      41 -> 45        -0.28119

 Excited State   8:      Singlet-A      8.4047 eV  147.52 nm  f=0.0275  <S**2>=0.000
      38 -> 44         0.41924
      39 -> 42         0.16039
      39 -> 43         0.16356
      39 -> 44         0.20105
      41 -> 43         0.12028
      41 -> 44        -0.22309
      41 -> 45         0.32210

 Excited State   9:      Singlet-A      8.4625 eV  146.51 nm  f=0.0104  <S**2>=0.000
      38 -> 43         0.11745
      38 -> 44         0.17666
      39 -> 42         0.15830
      39 -> 43         0.10462
      39 -> 44         0.22255
      40 -> 42        -0.22658
      40 -> 43         0.44671
      40 -> 44        -0.25406
      40 -> 45         0.10835
      41 -> 44         0.14536

 Excited State  10:      Singlet-A      8.5124 eV  145.65 nm  f=0.0115  <S**2>=0.000
      38 -> 42        -0.10884
      38 -> 44        -0.10965
      41 -> 42         0.17832
      41 -> 43         0.34399
      41 -> 44         0.44052
      41 -> 45         0.32756

 The electronic state is 1-A.
 Alpha  occ. eigenvalues --  -19.15128 -19.14909 -14.31402 -14.31050 -10.22986
 Alpha  occ. eigenvalues --  -10.22877 -10.22866 -10.22732 -10.20687 -10.20586
 Alpha  occ. eigenvalues --   -1.03644  -1.02669  -0.87851  -0.87550  -0.76621
 Alpha  occ. eigenvalues --   -0.72844  -0.68585  -0.61749  -0.60017  -0.58930
 Alpha  occ. eigenvalues --   -0.50981  -0.49989  -0.49222  -0.47769  -0.47397
 Alpha  occ. eigenvalues --   -0.46208  -0.44212  -0.42923  -0.41741  -0.41299
 Alpha  occ. eigenvalues --   -0.39163  -0.37614  -0.36366  -0.35541  -0.34065
 Alpha  occ. eigenvalues --   -0.32309  -0.31117  -0.26039  -0.25548  -0.24097
 Alpha  occ. eigenvalues --   -0.23654
 Alpha virt. eigenvalues --    0.07690   0.08606   0.09271   0.10454   0.13075
 Alpha virt. eigenvalues --    0.13222   0.13932   0.14642   0.14913   0.15756
 Alpha virt. eigenvalues --    0.16572   0.17019   0.18040   0.19172   0.19522

 Mulliken charges:
               1
     1  N   -0.582437
     2  C   -0.072850
     3  C    0.076653
     4  O   -0.503458
     5  C    0.028689
     6  C    0.057632
     7  O   -0.510065
     8  C    0.056367
     9  C   -0.145268
    10  N   -0.089148
    11  H    0.231468
    12  H    0.230433
    13  H    0.090331
    14  H    0.111352
    15  H    0.084632
    16  H    0.086097
    17  H    0.094406
    18  H    0.107025
    19  H    0.089615
    20  H    0.090796
    21  H    0.085661
    22  H    0.099951
    23  H    0.106501
    24  H    0.134236
    25  H    0.005515
    26  H    0.035864
 Sum of Mulliken charges =  -0.00000

 Dipole moment (field-independent basis, Debye):
    X=             -0.0589    Y=              2.5204    Z=              1.7190  Tot=              3.0513
 Quadrupole moment (field-independent basis, Debye-Ang):
   XX=            -54.0677   YY=            -64.6424   ZZ=            -64.4130
   XY=             -5.2041   XZ=             -6.5434   YZ=             -0.9114

 Summary of Natural Population Analysis:

                                       Natural Population
                Natural  -----------------------------------------------
    Atom  No    Charge         Core      Valence    Rydberg      Total
 -----------------------------------------------------------------------
      N    1   -0.87138      1.99964     5.85663    0.01510     7.87138
      C    2   -0.29351      1.99934     4.27909    0.01508     6.29351
      C    3   -0.12203      1.99925     4.10551    0.01727     6.12203
      O    4   -0.59486      1.99979     6.58182    0.01324     8.59486
      C    5   -0.13208      1.99928     4.11110    0.02170     6.13208
      C    6   -0.14347      1.99930     4.12649    0.01768     6.14347
      O    7   -0.61292      1.99978     6.59880    0.01434     8.61292
      C    8   -0.15888      1.99928     4.13325    0.02635     6.15888
      C    9   -0.38995      1.99933     4.36512    0.02550     6.38995
      N   10   -0.42831      1.99936     5.40503    0.02393     7.42831
      H   11    0.37062      0.00000     0.61649    0.01289     0.62938
      H   12    0.36610      0.00000     0.62110    0.01280     0.63390
      H   13    0.21498      0.00000     0.77890    0.00612     0.78502
      H   14    0.23262      0.00000     0.76290    0.00448     0.76738
      H   15    0.19983      0.00000     0.79466    0.00552     0.80017
      H   16    0.20327      0.00000     0.79165    0.00508     0.79673
      H   17    0.20517      0.00000     0.79137    0.00346     0.79483
      H   18    0.22705      0.00000     0.77049    0.00246     0.77295
      H   19    0.20346      0.00000     0.79285    0.00369     0.79654
      H   20    0.20210      0.00000     0.79496    0.00293     0.79790
      H   21    0.20348      0.00000     0.78797    0.00855     0.79652
      H   22    0.21274      0.00000     0.78348    0.00378     0.78726
      H   23    0.22551      0.00000     0.75618    0.01831     0.77449
      H   24    0.26080      0.00000     0.71782    0.02138     0.73920
      H   25    0.19683      0.00000     0.72335    0.07982     0.80317
      H   26    0.22252      0.00000     0.70119    0.07629     0.77748
 =======================================================================
   * Total *   -0.00033     19.99437    61.54819    0.45776    82.00033

 Normal termination of Gaussian 16 at Thu Jul 18 02:24:38 2024.
