 Gaussian 16, Revision A.03,

 -------------------------------------------------------
 # opt=CalcFc B3LYP/6-31G** SCRF=(Solvent=water) scf=xqc
 -------------------------------------------------------

 ----------------------------------
 IWBOPFCKHIJFMS-UHFFFAOYSA-N_conf_4
 ----------------------------------
 Symbolic Z-matrix:
 Charge =  0 Multiplicity = 1

 SCF Done:  E(RB3LYP) =  -498.211488607     A.U. after   11 cycles
 SCF Done:  E(RB3LYP) =  -498.213400379     A.U. after    9 cycles
 SCF Done:  E(RB3LYP) =  -498.213453487     A.U. after    9 cycles
 SCF Done:  E(RB3LYP) =  -498.213457521     A.U. after    8 cycles
 SCF Done:  E(RB3LYP) =  -498.213458308     A.U. after    8 cycles
 SCF Done:  E(RB3LYP) =  -498.213458357     A.U. after    6 cycles
 Optimization completed.
    -- Stationary point found.
 Normal termination of Gaussian 16 at Thu Jul 18 02:36:04 2024.

 ----------------------------------------------------------------------
 # freq B3LYP/6-31G** SCRF=(Solvent=water) volume NMR pop=NPA density=c
 urrent Geom=AllCheck Guess=Read
 ----------------------------------------------------------------------

 Structure from the checkpoint file:  "IWBOPFCKHIJFMS-UHFFFAOYSA-N_conf_4_1.chk"
 ----------------------------------
 IWBOPFCKHIJFMS-UHFFFAOYSA-N_conf_4
 ----------------------------------
 Charge =  0 Multiplicity = 1

 SCF Done:  E(RB3LYP) =  -498.213458357     A.U. after    1 cycles

      1  N    Isotropic =   243.7153   Anisotropy =    21.9928

      2  C    Isotropic =   148.1279   Anisotropy =    39.3392

      3  C    Isotropic =   117.5173   Anisotropy =    74.1868

      4  O    Isotropic =   303.9547   Anisotropy =    33.6678

      5  C    Isotropic =   123.0538   Anisotropy =    75.0387

      6  C    Isotropic =   124.4024   Anisotropy =    75.2611

      7  O    Isotropic =   302.3761   Anisotropy =    34.3042

      8  C    Isotropic =   116.9644   Anisotropy =    54.5559

      9  C    Isotropic =   147.4371   Anisotropy =    25.1465

     10  N    Isotropic =   239.4637   Anisotropy =    35.5137

     11  H    Isotropic =    31.5166   Anisotropy =    13.5398

     12  H    Isotropic =    31.5109   Anisotropy =    13.7302

     13  H    Isotropic =    29.1701   Anisotropy =     5.5341

     14  H    Isotropic =    29.1194   Anisotropy =     5.6797

     15  H    Isotropic =    28.6425   Anisotropy =     4.8043

     16  H    Isotropic =    28.1723   Anisotropy =     5.7777

     17  H    Isotropic =    27.8546   Anisotropy =     6.0622

     18  H    Isotropic =    28.3169   Anisotropy =     4.6516

     19  H    Isotropic =    28.4249   Anisotropy =     5.0721

     20  H    Isotropic =    27.8912   Anisotropy =     7.2402

     21  H    Isotropic =    28.5476   Anisotropy =     6.8676

     22  H    Isotropic =    28.2550   Anisotropy =     5.6355

     23  H    Isotropic =    29.0177   Anisotropy =     7.4637

     24  H    Isotropic =    29.2685   Anisotropy =     8.0786

     25  H    Isotropic =    31.7315   Anisotropy =    13.7878

     26  H    Isotropic =    30.6620   Anisotropy =    11.7693

  Exact polarizability: 120.549   2.953 104.865  -3.548  -0.610  99.641
 Approx polarizability: 116.598   3.087 114.826  -3.168  -0.375 111.194

                      1                      2                      3
                      A                      A                      A
 Frequencies --     25.3774                34.2414                41.6853
 Red. masses --      3.2912                 2.3885                 2.9314
 Frc consts  --      0.0012                 0.0016                 0.0030
 IR Inten    --      3.6402                 5.4019                 1.5605

                      4                      5                      6
                      A                      A                      A
 Frequencies --     79.9435               105.0697               121.6884
 Red. masses --      3.4568                 2.3149                 3.4466
 Frc consts  --      0.0130                 0.0151                 0.0301
 IR Inten    --      0.8439                 2.0187                 3.4152

                      7                      8                      9
                      A                      A                      A
 Frequencies --    148.3157               182.0987               213.0604
 Red. masses --      3.0933                 2.8904                 2.7526
 Frc consts  --      0.0401                 0.0565                 0.0736
 IR Inten    --      6.3168                11.3592                 4.2247

                     10                     11                     12
                      A                      A                      A
 Frequencies --    256.9219               297.9077               307.7275
 Red. masses --      2.0284                 1.8777                 1.1265
 Frc consts  --      0.0789                 0.0982                 0.0628
 IR Inten    --      7.9643                23.7607                91.6920

                     13                     14                     15
                      A                      A                      A
 Frequencies --    356.8840               395.0777               439.2226
 Red. masses --      1.8671                 3.1937                 2.9624
 Frc consts  --      0.1401                 0.2937                 0.3367
 IR Inten    --     35.5185                18.2993                17.6368

                     16                     17                     18
                      A                      A                      A
 Frequencies --    493.7596               569.7498               797.4745
 Red. masses --      3.2860                 2.8964                 1.1007
 Frc consts  --      0.4720                 0.5540                 0.4124
 IR Inten    --      9.5086                 0.8028                 0.0562

                     19                     20                     21
                      A                      A                      A
 Frequencies --    817.6859               832.2150               894.0440
 Red. masses --      1.1417                 1.5974                 2.6584
 Frc consts  --      0.4497                 0.6518                 1.2520
 IR Inten    --      2.0366                26.7579                57.2986

                     22                     23                     24
                      A                      A                      A
 Frequencies --    900.6023               946.6445               978.2455
 Red. masses --      1.5788                 1.3937                 3.7611
 Frc consts  --      0.7545                 0.7358                 2.1206
 IR Inten    --    241.9963               200.1654                41.2791

                     25                     26                     27
                      A                      A                      A
 Frequencies --   1010.8893              1012.7416              1058.9568
 Red. masses --      1.3173                 1.6356                 2.6288
 Frc consts  --      0.7931                 0.9884                 1.7369
 IR Inten    --      5.0814                16.4630                93.3698

                     28                     29                     30
                      A                      A                      A
 Frequencies --   1070.3486              1082.3904              1109.8637
 Red. masses --      3.2294                 3.6822                 2.8127
 Frc consts  --      2.1798                 2.5417                 2.0413
 IR Inten    --     65.9241                 0.4835                66.1118

                     31                     32                     33
                      A                      A                      A
 Frequencies --   1141.6411              1144.7231              1151.0970
 Red. masses --      2.4666                 5.4542                 4.7565
 Frc consts  --      1.8941                 4.2109                 3.7133
 IR Inten    --    132.2847               135.3700               200.8272

                     34                     35                     36
                      A                      A                      A
 Frequencies --   1185.6768              1215.3298              1221.2643
 Red. masses --      1.7818                 1.2842                 1.4415
 Frc consts  --      1.4758                 1.1175                 1.2667
 IR Inten    --      8.9097                 8.1077                 4.9630

                     37                     38                     39
                      A                      A                      A
 Frequencies --   1263.3781              1282.0229              1315.7853
 Red. masses --      1.2281                 1.1673                 1.1426
 Frc consts  --      1.1549                 1.1304                 1.1655
 IR Inten    --     36.3341                 8.9131                 1.2565

                     40                     41                     42
                      A                      A                      A
 Frequencies --   1316.2671              1353.6163              1358.1821
 Red. masses --      1.1119                 1.2452                 1.2461
 Frc consts  --      1.1350                 1.3442                 1.3544
 IR Inten    --     13.4618                42.5367                11.6585

                     43                     44                     45
                      A                      A                      A
 Frequencies --   1386.2921              1393.1150              1398.6506
 Red. masses --      1.1964                 1.2695                 1.2206
 Frc consts  --      1.3546                 1.4516                 1.4068
 IR Inten    --      0.0302                16.8438                 5.7321

                     46                     47                     48
                      A                      A                      A
 Frequencies --   1412.6409              1438.5360              1458.1637
 Red. masses --      1.3260                 1.3943                 1.4789
 Frc consts  --      1.5590                 1.7001                 1.8527
 IR Inten    --      5.1440                 6.1694                 2.7816

                     49                     50                     51
                      A                      A                      A
 Frequencies --   1485.8001              1500.9740              1507.0461
 Red. masses --      1.0920                 1.0830                 1.0866
 Frc consts  --      1.4204                 1.4376                 1.4540
 IR Inten    --      1.7184                 1.4786                 3.2372

                     52                     53                     54
                      A                      A                      A
 Frequencies --   1519.0610              1532.3590              1541.1666
 Red. masses --      1.0897                 1.0900                 1.0895
 Frc consts  --      1.4815                 1.5080                 1.5247
 IR Inten    --     13.2433                 4.2797                 1.2266

                     55                     56                     57
                      A                      A                      A
 Frequencies --   1661.2541              1663.6219              2969.8690
 Red. masses --      1.0906                 1.0867                 1.0549
 Frc consts  --      1.7733                 1.7721                 5.4818
 IR Inten    --     33.0076                33.0921                53.7393

                     58                     59                     60
                      A                      A                      A
 Frequencies --   2975.8489              2987.4410              3004.3241
 Red. masses --      1.0555                 1.0560                 1.1043
 Frc consts  --      5.5072                 5.5527                 5.8729
 IR Inten    --     65.6960                74.8338               118.6228

                     61                     62                     63
                      A                      A                      A
 Frequencies --   3011.6318              3013.1017              3023.8446
 Red. masses --      1.0742                 1.1045                 1.0967
 Frc consts  --      5.7406                 5.9079                 5.9082
 IR Inten    --    117.3999                53.9209                62.6953

                     64                     65                     66
                      A                      A                      A
 Frequencies --   3045.1573              3046.7161              3090.3089
 Red. masses --      1.0629                 1.0592                 1.1042
 Frc consts  --      5.8073                 5.7927                 6.2131
 IR Inten    --     82.2611                60.7140                62.5024

                     67                     68                     69
                      A                      A                      A
 Frequencies --   3090.5099              3091.9616              3473.9604
 Red. masses --      1.1011                 1.1072                 1.0503
 Frc consts  --      6.1963                 6.2366                 7.4684
 IR Inten    --     66.0301                72.9323                 1.2510

                     70                     71                     72
                      A                      A                      A
 Frequencies --   3479.2013              3552.3086              3558.5817
 Red. masses --      1.0499                 1.0910                 1.0923
 Frc consts  --      7.4882                 8.1116                 8.1495
 IR Inten    --      0.5285                 0.7894                 0.0166

 - Thermochemistry -
 -------------------
 Temperature   298.150 Kelvin.  Pressure   1.00000 Atm.
 Atom     1 has atomic number  7 and mass  14.00307

 Molecular mass:   148.12118 amu.
 Principal axes and moments of inertia in atomic units:
                           1         2         3
     Eigenvalues --   357.145755435.729385624.19854
           X            0.99999   0.00032  -0.00473
           Y           -0.00029   0.99997   0.00801
           Z            0.00473  -0.00801   0.99996
 This molecule is an asymmetric top.
 Rotational symmetry number  1.
 Rotational temperatures (Kelvin)      0.24252     0.01593     0.01540
 Rotational constants (GHZ):           5.05323     0.33201     0.32089
 Zero-point vibrational energy     615139.3 (Joules/Mol)
                                  147.02183 (Kcal/Mol)
 Warning -- explicit consideration of  17 degrees of freedom as
           vibrations may cause significant error
 Vibrational temperatures:     36.51    49.27    59.98   115.02   151.17
          (Kelvin)            175.08   213.39   262.00   306.55   369.65
                              428.62   442.75   513.48   568.43   631.94
                              710.41   819.74  1147.39  1176.47  1197.37
                             1286.33  1295.77  1362.01  1407.48  1454.44
                             1457.11  1523.60  1539.99  1557.32  1596.85
                             1642.57  1647.00  1656.17  1705.92  1748.59
                             1757.13  1817.72  1844.55  1893.12  1893.81
                             1947.55  1954.12  1994.57  2004.38  2012.35
                             2032.48  2069.73  2097.97  2137.73  2159.57
                             2168.30  2185.59  2204.72  2217.39  2390.17
                             2393.58  4272.98  4281.58  4298.26  4322.55
                             4333.07  4335.18  4350.64  4381.30  4383.54
                             4446.27  4446.55  4448.64  4998.25  5005.79
                             5110.98  5120.01

 Zero-point correction=                           0.234294 (Hartree/Particle)
 Thermal correction to Energy=                    0.247206
 Thermal correction to Enthalpy=                  0.248151
 Thermal correction to Gibbs Free Energy=         0.192721
 Sum of electronic and zero-point Energies=           -497.979164
 Sum of electronic and thermal Energies=              -497.966252
 Sum of electronic and thermal Enthalpies=            -497.965308
 Sum of electronic and thermal Free Energies=         -498.020738

                     E (Thermal)             CV                S
                      KCal/Mol        Cal/Mol-Kelvin    Cal/Mol-Kelvin
 Total                  155.124             44.158            116.662
 Electronic               0.000              0.000              0.000
 Translational            0.889              2.981             40.889
 Rotational               0.889              2.981             30.769
 Vibrational            153.347             38.196             45.004
 Vibration     1          0.593              1.985              6.161
 Vibration     2          0.594              1.983              5.567
 Vibration     3          0.594              1.981              5.177
 Vibration     4          0.600              1.963              3.892
 Vibration     5          0.605              1.945              3.358
 Vibration     6          0.609              1.931              3.073
 Vibration     7          0.618              1.905              2.694
 Vibration     8          0.630              1.864              2.307
 Vibration     9          0.644              1.821              2.017
 Vibration    10          0.667              1.751              1.683
 Vibration    11          0.691              1.678              1.429
 Vibration    12          0.698              1.659              1.375
 Vibration    13          0.732              1.561              1.136
 Vibration    14          0.762              1.481              0.981
 Vibration    15          0.799              1.385              0.829
 Vibration    16          0.849              1.264              0.674
 Vibration    17          0.926              1.097              0.505

 Optimization completed.
    -- Stationary point found.
 Normal termination of Gaussian 16 at Thu Jul 18 02:42:32 2024.
 Gaussian 16:  ES64L-G16RevA.03 25-Dec-2016

 ----------------------------------------------------------------------
 # TD(NStates=10, Root=1) B3LYP/6-31G** SCRF=(Solvent=water) volume pop
 =NPA density=current Geom=AllCheck Guess=Read
 ----------------------------------------------------------------------

 Structure from the checkpoint file:  "IWBOPFCKHIJFMS-UHFFFAOYSA-N_conf_4_2.chk"
 ----------------------------------
 IWBOPFCKHIJFMS-UHFFFAOYSA-N_conf_4
 ----------------------------------
 Charge =  0 Multiplicity = 1

                         Standard orientation:
 ---------------------------------------------------------------------
 Center     Atomic      Atomic             Coordinates (Angstroms)
 Number     Number       Type             X           Y           Z
 ---------------------------------------------------------------------
      1          7           0        5.006378    0.755635   -0.135177
      2          6           0        3.977337   -0.179842    0.326978
      3          6           0        2.591254    0.041851   -0.280717
      4          8           0        1.706960   -0.935715    0.259742
      5          6           0        0.397689   -0.922010   -0.290065
      6          6           0       -0.495455    0.131044    0.366094
      7          8           0       -1.785615    0.009385   -0.209233
      8          6           0       -2.730203    0.934824    0.316536
      9          6           0       -4.087481    0.629698   -0.310742
     10          7           0       -4.617105   -0.711046   -0.035373
     11          1           0        4.712830    1.709824    0.067831
     12          1           0        5.080817    0.703157   -1.149856
     13          1           0        3.900247   -0.106482    1.417875
     14          1           0        4.302124   -1.201755    0.099973
     15          1           0        2.639418   -0.054905   -1.377818
     16          1           0        2.247337    1.063257   -0.055608
     17          1           0       -0.031640   -1.913151   -0.110327
     18          1           0        0.426874   -0.759228   -1.377297
     19          1           0       -0.529973   -0.040356    1.453379
     20          1           0       -0.094769    1.143504    0.202796
     21          1           0       -2.786138    0.836724    1.413488
     22          1           0       -2.421863    1.968706    0.090160
     23          1           0       -4.002559    0.750274   -1.397748
     24          1           0       -4.809592    1.376640    0.037940
     25          1           0       -4.760871   -0.806829    0.969455
     26          1           0       -3.886767   -1.384264   -0.262979
 ---------------------------------------------------------------------

 SCF Done:  E(RB3LYP) =  -498.213458357     A.U. after    1 cycles

 Excitation energies and oscillator strengths:

 Excited State   1:      Singlet-A      7.4364 eV  166.73 nm  f=0.0214  <S**2>=0.000
      40 -> 42         0.46734
      40 -> 43         0.49010
      41 -> 42        -0.13130
      41 -> 43        -0.12178
 This state for optimization and/or second-order correction.
 Total Energy, E(TD-HF/TD-DFT) =  -497.940175169
 Copying the excited state density for this state as the 1-particle RhoCI density.

 Excited State   2:      Singlet-A      7.5913 eV  163.33 nm  f=0.0221  <S**2>=0.000
      40 -> 42         0.11245
      41 -> 42         0.48436
      41 -> 43        -0.38036
      41 -> 44         0.20431
      41 -> 45        -0.20842

 Excited State   3:      Singlet-A      7.9313 eV  156.32 nm  f=0.0138  <S**2>=0.000
      38 -> 44         0.13281
      39 -> 42         0.53291
      39 -> 43        -0.18133
      39 -> 44        -0.14280
      40 -> 42         0.16796
      40 -> 43        -0.18068
      40 -> 44        -0.11963
      41 -> 42        -0.13658
      41 -> 44         0.16155

 Excited State   4:      Singlet-A      8.0622 eV  153.78 nm  f=0.0200  <S**2>=0.000
      38 -> 42         0.43917
      38 -> 43        -0.22861
      39 -> 42         0.19678
      39 -> 43        -0.19920
      39 -> 44         0.16692
      40 -> 42        -0.16359
      40 -> 43         0.16486
      40 -> 44         0.22598
      41 -> 44        -0.14080

 Excited State   5:      Singlet-A      8.0994 eV  153.08 nm  f=0.0263  <S**2>=0.000
      38 -> 42         0.32174
      39 -> 42        -0.19829
      39 -> 44         0.16306
      40 -> 42         0.33517
      40 -> 43        -0.27766
      40 -> 44        -0.30331
      41 -> 43         0.13826

 Excited State   6:      Singlet-A      8.2624 eV  150.06 nm  f=0.0260  <S**2>=0.000
      38 -> 43        -0.26792
      38 -> 44        -0.11432
      39 -> 42         0.10581
      39 -> 43         0.41177
      39 -> 44         0.24684
      40 -> 43        -0.10150
      41 -> 42        -0.24288
      41 -> 43        -0.30113

 Excited State   7:      Singlet-A      8.3225 eV  148.98 nm  f=0.0030  <S**2>=0.000
      38 -> 42         0.19166
      39 -> 42        -0.21976
      39 -> 43        -0.14378
      40 -> 42        -0.13543
      41 -> 42        -0.35240
      41 -> 43        -0.10698
      41 -> 44         0.40108
      41 -> 45        -0.23302

 Excited State   8:      Singlet-A      8.4199 eV  147.25 nm  f=0.0170  <S**2>=0.000
      38 -> 42        -0.18567
      38 -> 43         0.14412
      39 -> 43        -0.18851
      39 -> 44         0.33187
      40 -> 42         0.16816
      40 -> 43        -0.19272
      40 -> 44         0.34343
      41 -> 42        -0.10302
      41 -> 44        -0.18396
      41 -> 45        -0.21045

 Excited State   9:      Singlet-A      8.5006 eV  145.85 nm  f=0.0040  <S**2>=0.000
      38 -> 43        -0.14748
      39 -> 43         0.27324
      40 -> 42         0.11143
      40 -> 44         0.22793
      41 -> 42         0.12841
      41 -> 43         0.42332
      41 -> 44         0.34108

 Excited State  10:      Singlet-A      8.5135 eV  145.63 nm  f=0.0106  <S**2>=0.000
      38 -> 42        -0.15158
      38 -> 44         0.18003
      39 -> 44         0.40737
      40 -> 42        -0.18020
      40 -> 43         0.21608
      40 -> 44        -0.36514
      40 -> 45        -0.10992
      41 -> 45        -0.12281

 The electronic state is 1-A.
 Alpha  occ. eigenvalues --  -19.15276 -19.15191 -14.31567 -14.31076 -10.23125
 Alpha  occ. eigenvalues --  -10.22967 -10.22740 -10.22726 -10.20635 -10.20598
 Alpha  occ. eigenvalues --   -1.03763  -1.02819  -0.88013  -0.87635  -0.76588
 Alpha  occ. eigenvalues --   -0.72513  -0.68533  -0.62146  -0.60006  -0.59643
 Alpha  occ. eigenvalues --   -0.51177  -0.50000  -0.49548  -0.48444  -0.46599
 Alpha  occ. eigenvalues --   -0.45761  -0.44948  -0.43154  -0.41549  -0.40115
 Alpha  occ. eigenvalues --   -0.39512  -0.37721  -0.36425  -0.35493  -0.34351
 Alpha  occ. eigenvalues --   -0.32875  -0.31475  -0.26209  -0.25608  -0.24202
 Alpha  occ. eigenvalues --   -0.23962
 Alpha virt. eigenvalues --    0.07815   0.08309   0.09204   0.11048   0.12710
 Alpha virt. eigenvalues --    0.13159   0.13515   0.14387   0.14863   0.15924
 Alpha virt. eigenvalues --    0.17183   0.17680   0.17892   0.19121   0.19479

 Mulliken charges:
               1
     1  N   -0.017668
     2  C   -0.155086
     3  C    0.067055
     4  O   -0.503530
     5  C    0.030742
     6  C    0.069513
     7  O   -0.517771
     8  C    0.071767
     9  C   -0.083465
    10  N   -0.632948
    11  H   -0.025090
    12  H   -0.020739
    13  H    0.121375
    14  H    0.126116
    15  H    0.081309
    16  H    0.079397
    17  H    0.114313
    18  H    0.098846
    19  H    0.096314
    20  H    0.095861
    21  H    0.089244
    22  H    0.089485
    23  H    0.110868
    24  H    0.111719
    25  H    0.249845
    26  H    0.252529
 Sum of Mulliken charges =  -0.00000

 Dipole moment (field-independent basis, Debye):
    X=              1.5659    Y=              1.2007    Z=              1.6611  Tot=              2.5794
 Quadrupole moment (field-independent basis, Debye-Ang):
   XX=            -72.4458   YY=            -64.7473   ZZ=            -64.3625
   XY=             -5.5578   XZ=             -5.4533   YZ=             -0.1811

 Summary of Natural Population Analysis:

                                       Natural Population
                Natural  -----------------------------------------------
    Atom  No    Charge         Core      Valence    Rydberg      Total
 -----------------------------------------------------------------------
      N    1   -0.38066      1.99934     5.35295    0.02837     7.38066
      C    2   -0.40613      1.99936     4.38073    0.02604     6.40613
      C    3   -0.15150      1.99916     4.12338    0.02896     6.15150
      O    4   -0.60647      1.99978     6.59280    0.01388     8.60647
      C    5   -0.12801      1.99928     4.10842    0.02031     6.12801
      C    6   -0.12945      1.99930     4.11371    0.01644     6.12945
      O    7   -0.60623      1.99978     6.59356    0.01290     8.60623
      C    8   -0.12616      1.99927     4.11171    0.01518     6.12616
      C    9   -0.29091      1.99935     4.27516    0.01639     6.29091
      N   10   -0.92496      1.99971     5.90980    0.01545     7.92496
      H   11    0.18024      0.00000     0.73429    0.08547     0.81976
      H   12    0.18415      0.00000     0.73122    0.08463     0.81585
      H   13    0.24228      0.00000     0.74109    0.01663     0.75772
      H   14    0.24652      0.00000     0.73807    0.01541     0.75348
      H   15    0.20004      0.00000     0.78503    0.01493     0.79996
      H   16    0.19641      0.00000     0.78635    0.01724     0.80359
      H   17    0.23147      0.00000     0.76595    0.00258     0.76853
      H   18    0.20877      0.00000     0.78745    0.00377     0.79123
      H   19    0.20598      0.00000     0.79061    0.00340     0.79402
      H   20    0.20363      0.00000     0.79382    0.00256     0.79637
      H   21    0.20234      0.00000     0.79449    0.00317     0.79766
      H   22    0.20883      0.00000     0.78812    0.00305     0.79117
      H   23    0.22958      0.00000     0.76780    0.00261     0.77042
      H   24    0.23750      0.00000     0.76076    0.00174     0.76250
      H   25    0.38354      0.00000     0.61350    0.00296     0.61646
      H   26    0.38787      0.00000     0.60819    0.00394     0.61213
 =======================================================================
   * Total *   -0.00132     19.99433    61.54897    0.45802    82.00132

 Normal termination of Gaussian 16 at Thu Jul 18 02:51:12 2024.
