 Gaussian 16, Revision A.03,

 -------------------------------------------------------
 # opt=CalcFc B3LYP/6-31G** SCRF=(Solvent=water) scf=xqc
 -------------------------------------------------------

 ----------------------------------
 JCEZOHLWDIONSP-UHFFFAOYSA-N_conf_0
 ----------------------------------
 Symbolic Z-matrix:
 Charge =  0 Multiplicity = 1

 SCF Done:  E(RB3LYP) =  -730.676920774     A.U. after   11 cycles
 SCF Done:  E(RB3LYP) =  -730.681353083     A.U. after   10 cycles
 SCF Done:  E(RB3LYP) =  -730.681728415     A.U. after   10 cycles
 SCF Done:  E(RB3LYP) =  -730.681754341     A.U. after    9 cycles
 SCF Done:  E(RB3LYP) =  -730.681758718     A.U. after    8 cycles
 SCF Done:  E(RB3LYP) =  -730.681759238     A.U. after    8 cycles
 SCF Done:  E(RB3LYP) =  -730.681759866     A.U. after    7 cycles
 SCF Done:  E(RB3LYP) =  -730.681759941     A.U. after    6 cycles
 Optimization completed.
    -- Stationary point found.
 Normal termination of Gaussian 16 at Thu Jul 18 03:32:57 2024.

 ----------------------------------------------------------------------
 # freq B3LYP/6-31G** SCRF=(Solvent=water) volume NMR pop=NPA density=c
 urrent Geom=AllCheck Guess=Read
 ----------------------------------------------------------------------

 Structure from the checkpoint file:  "JCEZOHLWDIONSP-UHFFFAOYSA-N_conf_0_1.chk"
 ----------------------------------
 JCEZOHLWDIONSP-UHFFFAOYSA-N_conf_0
 ----------------------------------
 Charge =  0 Multiplicity = 1

 SCF Done:  E(RB3LYP) =  -730.681759941     A.U. after    1 cycles

      1  N    Isotropic =   235.5477   Anisotropy =    36.0742

      2  C    Isotropic =   150.2694   Anisotropy =    31.6975

      3  C    Isotropic =   155.2028   Anisotropy =    29.6645

      4  C    Isotropic =   122.3443   Anisotropy =    76.5293

      5  O    Isotropic =   289.8752   Anisotropy =    53.3238

      6  C    Isotropic =   120.9400   Anisotropy =    61.2515

      7  C    Isotropic =   123.9160   Anisotropy =    52.8916

      8  O    Isotropic =   299.3352   Anisotropy =    33.3851

      9  C    Isotropic =   120.8229   Anisotropy =    58.3870

     10  C    Isotropic =   127.6579   Anisotropy =    67.7324

     11  O    Isotropic =   294.7326   Anisotropy =    47.9233

     12  C    Isotropic =   123.0420   Anisotropy =    76.4234

     13  C    Isotropic =   158.3468   Anisotropy =    27.4937

     14  C    Isotropic =   150.4786   Anisotropy =    32.7090

     15  N    Isotropic =   236.9111   Anisotropy =    39.0659

     16  H    Isotropic =    31.1364   Anisotropy =    11.8172

     17  H    Isotropic =    31.7118   Anisotropy =    12.9301

     18  H    Isotropic =    29.2217   Anisotropy =     6.9498

     19  H    Isotropic =    29.0256   Anisotropy =     8.4246

     20  H    Isotropic =    30.2423   Anisotropy =     4.9994

     21  H    Isotropic =    30.1044   Anisotropy =     6.0873

     22  H    Isotropic =    28.4320   Anisotropy =     5.3091

     23  H    Isotropic =    28.1359   Anisotropy =     7.1503

     24  H    Isotropic =    28.1440   Anisotropy =     6.2922

     25  H    Isotropic =    28.3335   Anisotropy =     5.8553

     26  H    Isotropic =    28.5356   Anisotropy =     5.7405

     27  H    Isotropic =    27.8724   Anisotropy =     4.9885

     28  H    Isotropic =    27.6595   Anisotropy =     7.5511

     29  H    Isotropic =    28.3721   Anisotropy =     6.3838

     30  H    Isotropic =    29.0348   Anisotropy =     6.9038

     31  H    Isotropic =    27.4445   Anisotropy =     5.7509

     32  H    Isotropic =    28.5355   Anisotropy =     5.6017

     33  H    Isotropic =    27.6676   Anisotropy =     7.7019

     34  H    Isotropic =    30.5134   Anisotropy =     5.0946

     35  H    Isotropic =    29.7607   Anisotropy =     6.4608

     36  H    Isotropic =    29.3253   Anisotropy =     6.9865

     37  H    Isotropic =    28.9903   Anisotropy =     8.1762

     38  H    Isotropic =    31.1155   Anisotropy =    11.9098

     39  H    Isotropic =    31.7437   Anisotropy =    12.9352

  Exact polarizability: 181.710  -0.822 164.200  -3.828  -0.738 157.819
 Approx polarizability: 177.680   0.388 176.746  -3.731   0.789 175.602

                      1                      2                      3
                      A                      A                      A
 Frequencies --     11.3091                18.3625                28.1456
 Red. masses --      4.2761                 3.6282                 2.3687
 Frc consts  --      0.0003                 0.0007                 0.0011
 IR Inten    --      0.3909                 0.3452                 0.2647

                      4                      5                      6
                      A                      A                      A
 Frequencies --     33.6863                39.8845                59.2860
 Red. masses --      3.1999                 4.5696                 4.0446
 Frc consts  --      0.0021                 0.0043                 0.0084
 IR Inten    --      0.1693                 0.0613                 4.2832

                      7                      8                      9
                      A                      A                      A
 Frequencies --     89.2213                94.7707               124.0476
 Red. masses --      3.2382                 3.7021                 2.9344
 Frc consts  --      0.0152                 0.0196                 0.0266
 IR Inten    --      0.3428                 3.2489                 0.6827

                     10                     11                     12
                      A                      A                      A
 Frequencies --    128.0837               139.9698               161.0792
 Red. masses --      2.6660                 2.2826                 2.7352
 Frc consts  --      0.0258                 0.0263                 0.0418
 IR Inten    --      8.2449                 2.2793                 9.7290

                     13                     14                     15
                      A                      A                      A
 Frequencies --    188.0467               217.3410               243.1331
 Red. masses --      2.4520                 2.3576                 2.6207
 Frc consts  --      0.0511                 0.0656                 0.0913
 IR Inten    --      8.0921                17.9628                24.3475

                     16                     17                     18
                      A                      A                      A
 Frequencies --    251.8509               292.4657               310.0636
 Red. masses --      2.0338                 2.1797                 1.5099
 Frc consts  --      0.0760                 0.1098                 0.0855
 IR Inten    --     11.3779                 6.2054                78.9446

                     19                     20                     21
                      A                      A                      A
 Frequencies --    318.8963               327.0756               357.8036
 Red. masses --      1.4061                 1.9122                 2.4711
 Frc consts  --      0.0843                 0.1205                 0.1864
 IR Inten    --     21.0145                 4.4179                 5.6785

                     22                     23                     24
                      A                      A                      A
 Frequencies --    385.1025               414.9223               481.0720
 Red. masses --      3.0516                 2.9099                 2.4362
 Frc consts  --      0.2666                 0.2952                 0.3322
 IR Inten    --      2.9588                 3.8799                 8.3992

                     25                     26                     27
                      A                      A                      A
 Frequencies --    504.9568               574.0366               593.5151
 Red. masses --      2.5607                 2.4381                 2.6224
 Frc consts  --      0.3847                 0.4734                 0.5443
 IR Inten    --     10.6289                 1.7027                13.7198

                     28                     29                     30
                      A                      A                      A
 Frequencies --    768.5356               787.5550               828.9117
 Red. masses --      1.2136                 1.2047                 1.6655
 Frc consts  --      0.4223                 0.4403                 0.6743
 IR Inten    --     16.1515                11.6358                10.7700

                     31                     32                     33
                      A                      A                      A
 Frequencies --    837.5562               843.1943               860.1705
 Red. masses --      1.9706                 1.6684                 2.3540
 Frc consts  --      0.8145                 0.6989                 1.0262
 IR Inten    --     25.7027                27.4804                28.4326

                     34                     35                     36
                      A                      A                      A
 Frequencies --    882.0024               891.7334               910.1119
 Red. masses --      1.9268                 2.0652                 2.1273
 Frc consts  --      0.8831                 0.9676                 1.0382
 IR Inten    --     86.0219               190.7607               110.5905

                     37                     38                     39
                      A                      A                      A
 Frequencies --    941.2224               954.8001               957.8387
 Red. masses --      1.9212                 1.4869                 1.4430
 Frc consts  --      1.0028                 0.7987                 0.7800
 IR Inten    --     30.0564               126.0360               107.2739

                     40                     41                     42
                      A                      A                      A
 Frequencies --   1025.1541              1035.8229              1040.5058
 Red. masses --      1.6562                 1.6659                 3.0694
 Frc consts  --      1.0255                 1.0531                 1.9579
 IR Inten    --     18.0881                12.0914                37.3466

                     43                     44                     45
                      A                      A                      A
 Frequencies --   1055.5857              1069.8679              1070.3058
 Red. masses --      2.9919                 2.7529                 2.4235
 Frc consts  --      1.9642                 1.8565                 1.6357
 IR Inten    --      7.6887                55.7057                51.0908

                     46                     47                     48
                      A                      A                      A
 Frequencies --   1085.4666              1108.4993              1131.1028
 Red. masses --      2.7739                 3.0681                 2.3824
 Frc consts  --      1.9257                 2.2212                 1.7958
 IR Inten    --      8.5830               243.7818                47.2873

                     49                     50                     51
                      A                      A                      A
 Frequencies --   1142.5594              1146.5808              1149.0016
 Red. masses --      2.7179                 2.8849                 3.2832
 Frc consts  --      2.0905                 2.2345                 2.5538
 IR Inten    --    154.0198               124.3067                55.4612

                     52                     53                     54
                      A                      A                      A
 Frequencies --   1157.5900              1165.0933              1205.6940
 Red. masses --      2.1310                 4.4768                 1.5853
 Frc consts  --      1.6824                 3.5804                 1.3578
 IR Inten    --     18.6113               116.5323                 4.1491

                     55                     56                     57
                      A                      A                      A
 Frequencies --   1208.6460              1256.9449              1262.7772
 Red. masses --      1.5230                 1.1801                 1.1988
 Frc consts  --      1.3108                 1.0985                 1.1263
 IR Inten    --      7.7547                12.2627                 6.3618

                     58                     59                     60
                      A                      A                      A
 Frequencies --   1269.8140              1288.1844              1308.4877
 Red. masses --      1.1879                 1.2303                 1.0912
 Frc consts  --      1.1285                 1.2029                 1.1008
 IR Inten    --     35.7758                22.6011                 9.0645

                     61                     62                     63
                      A                      A                      A
 Frequencies --   1319.9562              1327.0860              1334.8101
 Red. masses --      1.1066                 1.1349                 1.2867
 Frc consts  --      1.1359                 1.1776                 1.3507
 IR Inten    --      1.1890                16.4410                 9.3789

                     64                     65                     66
                      A                      A                      A
 Frequencies --   1342.0826              1346.3407              1390.0867
 Red. masses --      1.3786                 1.2046                 1.2586
 Frc consts  --      1.4630                 1.2865                 1.4329
 IR Inten    --      8.7755                21.7928               128.2020

                     67                     68                     69
                      A                      A                      A
 Frequencies --   1393.6701              1397.0096              1398.5005
 Red. masses --      1.2786                 1.2319                 1.1573
 Frc consts  --      1.4631                 1.4166                 1.3336
 IR Inten    --     15.7437                 3.9191                 0.1999

                     70                     71                     72
                      A                      A                      A
 Frequencies --   1400.4149              1412.1826              1428.2285
 Red. masses --      1.1846                 1.2907                 1.3406
 Frc consts  --      1.3688                 1.5166                 1.6111
 IR Inten    --      9.1085                 3.5122                20.7725

                     73                     74                     75
                      A                      A                      A
 Frequencies --   1437.8106              1440.5952              1464.1907
 Red. masses --      1.3843                 1.4135                 1.5450
 Frc consts  --      1.6860                 1.7283                 1.9515
 IR Inten    --      5.0428                 2.3104                 0.3958

                     76                     77                     78
                      A                      A                      A
 Frequencies --   1485.9024              1488.4541              1492.5262
 Red. masses --      1.0946                 1.0936                 1.0907
 Frc consts  --      1.4240                 1.4275                 1.4316
 IR Inten    --      5.2379                 2.2307                 4.3733

                     79                     80                     81
                      A                      A                      A
 Frequencies --   1497.8497              1499.5567              1510.5585
 Red. masses --      1.0898                 1.1009                 1.0872
 Frc consts  --      1.4406                 1.4586                 1.4616
 IR Inten    --      1.2938                 0.8406                 9.5780

                     82                     83                     84
                      A                      A                      A
 Frequencies --   1511.4257              1517.8114              1524.4241
 Red. masses --      1.0897                 1.0982                 1.0944
 Frc consts  --      1.4666                 1.4906                 1.4984
 IR Inten    --     10.4364                 5.5382                12.3334

                     85                     86                     87
                      A                      A                      A
 Frequencies --   1541.4549              1659.6487              1661.3278
 Red. masses --      1.0969                 1.0888                 1.0885
 Frc consts  --      1.5357                 1.7670                 1.7701
 IR Inten    --      0.9266                30.9647                31.4541

                     88                     89                     90
                      A                      A                      A
 Frequencies --   2964.8476              2980.3494              2981.5308
 Red. masses --      1.0546                 1.0598                 1.0586
 Frc consts  --      5.4620                 5.5464                 5.5447
 IR Inten    --     53.7037                20.6369                70.9381

                     91                     92                     93
                      A                      A                      A
 Frequencies --   2985.9072              2991.0858              2994.3579
 Red. masses --      1.0685                 1.0607                 1.1035
 Frc consts  --      5.6126                 5.5913                 5.8293
 IR Inten    --    103.0528                36.2047               133.9578

                     94                     95                     96
                      A                      A                      A
 Frequencies --   3003.8166              3016.3776              3026.2224
 Red. masses --      1.0691                 1.1027                 1.0884
 Frc consts  --      5.6837                 5.9113                 5.8729
 IR Inten    --    132.5369                82.9530                25.3961

                     97                     98                     99
                      A                      A                      A
 Frequencies --   3030.9919              3031.0845              3034.0420
 Red. masses --      1.0666                 1.0701                 1.0642
 Frc consts  --      5.7734                 5.7926                 5.7721
 IR Inten    --     58.7356                78.2859                40.4009

                    100                    101                    102
                      A                      A                      A
 Frequencies --   3035.2534              3035.5406              3067.2740
 Red. masses --      1.0655                 1.0909                 1.0953
 Frc consts  --      5.7833                 5.9225                 6.0716
 IR Inten    --     73.3290                68.6141                 7.5525

                    103                    104                    105
                      A                      A                      A
 Frequencies --   3073.4314              3075.0809              3080.1899
 Red. masses --      1.1015                 1.1033                 1.1060
 Frc consts  --      6.1302                 6.1468                 6.1822
 IR Inten    --     67.4597                75.5027                94.9265

                    106                    107                    108
                      A                      A                      A
 Frequencies --   3085.2202              3094.6842              3481.9349
 Red. masses --      1.1022                 1.0965                 1.0504
 Frc consts  --      6.1814                 6.1872                 7.5029
 IR Inten    --    123.8512                66.4313                 0.8621

                    109                    110                    111
                      A                      A                      A
 Frequencies --   3482.8950              3563.4917              3565.1527
 Red. masses --      1.0503                 1.0916                 1.0917
 Frc consts  --      7.5068                 8.1669                 8.1757
 IR Inten    --      0.7640                 0.0398                 0.0544

 - Thermochemistry -
 -------------------
 Temperature   298.150 Kelvin.  Pressure   1.00000 Atm.
 Atom     1 has atomic number  7 and mass  14.00307

 Molecular mass:   220.17869 amu.
 Principal axes and moments of inertia in atomic units:
                           1         2         3
     Eigenvalues --  1281.29712********************
           X            1.00000   0.00026   0.00202
           Y           -0.00028   0.99997   0.00779
           Z           -0.00202  -0.00779   0.99997
 This molecule is an asymmetric top.
 Rotational symmetry number  1.
 Warning -- assumption of classical behavior for rotation
           may cause significant error
 Rotational temperatures (Kelvin)      0.06760     0.00603     0.00576
 Rotational constants (GHZ):           1.40853     0.12556     0.12010
 Zero-point vibrational energy     926747.7 (Joules/Mol)
                                  221.49801 (Kcal/Mol)
 Warning -- explicit consideration of  27 degrees of freedom as
           vibrations may cause significant error
 Vibrational temperatures:     16.27    26.42    40.50    48.47    57.38
          (Kelvin)             85.30   128.37   136.35   178.48   184.28
                              201.39   231.76   270.56   312.71   349.81
                              362.36   420.79   446.11   458.82   470.59
                              514.80   554.08   596.98   692.16   726.52
                              825.91   853.94  1105.75  1133.12  1192.62
                             1205.06  1213.17  1237.59  1269.00  1283.01
                             1309.45  1354.21  1373.74  1378.12  1474.97
                             1490.32  1497.06  1518.75  1539.30  1539.93
                             1561.74  1594.88  1627.40  1643.89  1649.67
                             1653.16  1665.51  1676.31  1734.72  1738.97
                             1808.46  1816.85  1826.98  1853.41  1882.62
                             1899.12  1909.38  1920.49  1930.96  1937.08
                             2000.02  2005.18  2009.99  2012.13  2014.88
                             2031.82  2054.90  2068.69  2072.70  2106.64
                             2137.88  2141.55  2147.41  2155.07  2157.53
                             2173.36  2174.60  2183.79  2193.31  2217.81
                             2387.86  2390.28  4265.75  4288.06  4289.76
                             4296.05  4303.51  4308.21  4321.82  4339.89
                             4354.06  4360.92  4361.05  4365.31  4367.05
                             4367.47  4413.12  4421.98  4424.36  4431.71
                             4438.94  4452.56  5009.73  5011.11  5127.07
                             5129.46

 Zero-point correction=                           0.352980 (Hartree/Particle)
 Thermal correction to Energy=                    0.372058
 Thermal correction to Enthalpy=                  0.373002
 Thermal correction to Gibbs Free Energy=         0.300553
 Sum of electronic and zero-point Energies=           -730.328780
 Sum of electronic and thermal Energies=              -730.309702
 Sum of electronic and thermal Enthalpies=            -730.308757
 Sum of electronic and thermal Free Energies=         -730.381207

                     E (Thermal)             CV                S
                      KCal/Mol        Cal/Mol-Kelvin    Cal/Mol-Kelvin
 Total                  233.470             66.581            152.482
 Electronic               0.000              0.000              0.000
 Translational            0.889              2.981             42.071
 Rotational               0.889              2.981             33.981
 Vibrational            231.693             60.619             76.431
 Vibration     1          0.593              1.987              7.767
 Vibration     2          0.593              1.986              6.804
 Vibration     3          0.593              1.984              5.956
 Vibration     4          0.594              1.983              5.600
 Vibration     5          0.594              1.981              5.265
 Vibration     6          0.597              1.974              4.481
 Vibration     7          0.602              1.957              3.677
 Vibration     8          0.603              1.953              3.559
 Vibration     9          0.610              1.929              3.036
 Vibration    10          0.611              1.925              2.975
 Vibration    11          0.615              1.913              2.804
 Vibration    12          0.622              1.890              2.537
 Vibration    13          0.633              1.856              2.247
 Vibration    14          0.646              1.815              1.981
 Vibration    15          0.659              1.774              1.780
 Vibration    16          0.664              1.760              1.718
 Vibration    17          0.688              1.688              1.460
 Vibration    18          0.699              1.655              1.362
 Vibration    19          0.705              1.637              1.316
 Vibration    20          0.711              1.621              1.274
 Vibration    21          0.733              1.559              1.132
 Vibration    22          0.754              1.502              1.019
 Vibration    23          0.778              1.438              0.909
 Vibration    24          0.837              1.292              0.707
 Vibration    25          0.860              1.239              0.646
 Vibration    26          0.930              1.087              0.497
 Vibration    27          0.951              1.046              0.461

 Optimization completed.
    -- Stationary point found.
 Normal termination of Gaussian 16 at Thu Jul 18 03:51:47 2024.
 Gaussian 16:  ES64L-G16RevA.03 25-Dec-2016

 ----------------------------------------------------------------------
 # TD(NStates=10, Root=1) B3LYP/6-31G** SCRF=(Solvent=water) volume pop
 =NPA density=current Geom=AllCheck Guess=Read
 ----------------------------------------------------------------------

 Structure from the checkpoint file:  "JCEZOHLWDIONSP-UHFFFAOYSA-N_conf_0_2.chk"
 ----------------------------------
 JCEZOHLWDIONSP-UHFFFAOYSA-N_conf_0
 ----------------------------------
 Charge =  0 Multiplicity = 1

                         Standard orientation:
 ---------------------------------------------------------------------
 Center     Atomic      Atomic             Coordinates (Angstroms)
 Number     Number       Type             X           Y           Z
 ---------------------------------------------------------------------
      1          7           0       -6.968397   -1.194660    0.244950
      2          6           0       -6.297939   -0.481126   -0.851490
      3          6           0       -5.016811    0.294724   -0.497567
      4          6           0       -3.861889   -0.596825   -0.060277
      5          8           0       -2.745945    0.226442    0.253101
      6          6           0       -1.618283   -0.515707    0.686745
      7          6           0       -0.478951    0.432736    0.997593
      8          8           0       -0.018112    1.015324   -0.213756
      9          6           0        0.921432    2.068097   -0.041241
     10          6           0        2.323425    1.608827    0.335006
     11          8           0        2.853033    0.837559   -0.733061
     12          6           0        4.208549    0.434194   -0.550721
     13          6           0        4.373935   -0.756471    0.396787
     14          6           0        5.829575   -1.246521    0.513121
     15          7           0        6.443086   -1.808289   -0.698679
     16          1           0       -6.346228   -1.902688    0.629073
     17          1           0       -7.144157   -0.544086    1.009426
     18          1           0       -6.076932   -1.212133   -1.639838
     19          1           0       -7.019855    0.223288   -1.280638
     20          1           0       -5.232925    1.014390    0.302973
     21          1           0       -4.696435    0.877386   -1.370582
     22          1           0       -3.599388   -1.305330   -0.864029
     23          1           0       -4.143242   -1.197009    0.820714
     24          1           0       -1.301724   -1.231829   -0.088337
     25          1           0       -1.857486   -1.093495    1.594299
     26          1           0       -0.826626    1.213463    1.692099
     27          1           0        0.317433   -0.133927    1.502415
     28          1           0        0.966259    2.588551   -1.003308
     29          1           0        0.568838    2.782034    0.719454
     30          1           0        2.944618    2.502179    0.513354
     31          1           0        2.304970    1.036528    1.273453
     32          1           0        4.813248    1.286119   -0.199298
     33          1           0        4.566256    0.167383   -1.550915
     34          1           0        3.736357   -1.578178    0.044431
     35          1           0        4.019484   -0.486353    1.399387
     36          1           0        6.466313   -0.421137    0.856914
     37          1           0        5.874589   -2.013317    1.295316
     38          1           0        6.493802   -1.097838   -1.425498
     39          1           0        5.839946   -2.539515   -1.072770
 ---------------------------------------------------------------------

 SCF Done:  E(RB3LYP) =  -730.681759941     A.U. after    1 cycles

 Excitation energies and oscillator strengths:

 Excited State   1:      Singlet-A      7.3197 eV  169.39 nm  f=0.0169  <S**2>=0.000
      61 -> 62         0.11646
      61 -> 63         0.67104
 This state for optimization and/or second-order correction.
 Total Energy, E(TD-HF/TD-DFT) =  -730.412767352
 Copying the excited state density for this state as the 1-particle RhoCI density.

 Excited State   2:      Singlet-A      7.3426 eV  168.85 nm  f=0.0189  <S**2>=0.000
      60 -> 62         0.64275
      60 -> 63        -0.11632
      60 -> 64         0.22228

 Excited State   3:      Singlet-A      7.9028 eV  156.89 nm  f=0.0638  <S**2>=0.000
      58 -> 64        -0.15529
      59 -> 62         0.20911
      59 -> 64        -0.35381
      61 -> 62        -0.24530
      61 -> 64         0.44234
      61 -> 65        -0.10623

 Excited State   4:      Singlet-A      8.0757 eV  153.53 nm  f=0.0081  <S**2>=0.000
      57 -> 64        -0.10206
      57 -> 65         0.12115
      58 -> 62        -0.15934
      58 -> 64         0.22274
      58 -> 65         0.12146
      59 -> 62         0.22545
      59 -> 64        -0.28741
      59 -> 65        -0.10670
      60 -> 62        -0.12991
      60 -> 64         0.32367
      60 -> 65         0.16223
      61 -> 62         0.12812
      61 -> 64        -0.21038

 Excited State   5:      Singlet-A      8.1168 eV  152.75 nm  f=0.0143  <S**2>=0.000
      57 -> 63        -0.15372
      58 -> 62         0.10313
      58 -> 63         0.38882
      59 -> 63         0.47151
      61 -> 63        -0.14075
      61 -> 66        -0.12359

 Excited State   6:      Singlet-A      8.1831 eV  151.51 nm  f=0.0556  <S**2>=0.000
      57 -> 62        -0.11406
      57 -> 64        -0.17469
      58 -> 62        -0.33440
      58 -> 64        -0.18613
      58 -> 65        -0.10568
      59 -> 62         0.41404
      59 -> 65         0.11311
      60 -> 64        -0.18174
      60 -> 65        -0.19123
      61 -> 64        -0.11631

 Excited State   7:      Singlet-A      8.2113 eV  150.99 nm  f=0.0096  <S**2>=0.000
      57 -> 62        -0.23405
      57 -> 64         0.18008
      58 -> 62        -0.24380
      58 -> 63         0.16245
      59 -> 64         0.36905
      59 -> 65        -0.12955
      60 -> 64         0.15517
      60 -> 65         0.22229
      61 -> 62        -0.19017
      61 -> 64         0.16601

 Excited State   8:      Singlet-A      8.3031 eV  149.32 nm  f=0.0465  <S**2>=0.000
      57 -> 65         0.13542
      58 -> 62        -0.11841
      58 -> 64         0.36558
      58 -> 65         0.16921
      59 -> 64        -0.10448
      59 -> 65        -0.24881
      60 -> 62         0.14103
      60 -> 64        -0.36216
      60 -> 65        -0.17633
      61 -> 62        -0.15582

 Excited State   9:      Singlet-A      8.3263 eV  148.91 nm  f=0.0303  <S**2>=0.000
      57 -> 62        -0.19483
      57 -> 64         0.27580
      58 -> 64        -0.15276
      58 -> 65         0.18671
      59 -> 64        -0.10365
      60 -> 63         0.17582
      60 -> 64        -0.13510
      61 -> 62         0.46263

 Excited State  10:      Singlet-A      8.3530 eV  148.43 nm  f=0.0201  <S**2>=0.000
      57 -> 64        -0.16219
      58 -> 62        -0.15305
      58 -> 64         0.15534
      59 -> 64         0.10006
      60 -> 62        -0.10773
      60 -> 63        -0.30943
      61 -> 62         0.33832
      61 -> 64         0.37691

 The electronic state is 1-A.
 Alpha  occ. eigenvalues --  -19.14967 -19.14808 -19.14736 -14.31208 -14.31198
 Alpha  occ. eigenvalues --  -10.23171 -10.23165 -10.23105 -10.22915 -10.22784
 Alpha  occ. eigenvalues --  -10.22769 -10.20641 -10.20635 -10.17838 -10.17716
 Alpha  occ. eigenvalues --   -1.04027  -1.02939  -1.01913  -0.87701  -0.87687
 Alpha  occ. eigenvalues --   -0.78384  -0.76644  -0.74417  -0.71831  -0.66239
 Alpha  occ. eigenvalues --   -0.65131  -0.61974  -0.59401  -0.58498  -0.57680
 Alpha  occ. eigenvalues --   -0.50978  -0.50270  -0.50047  -0.48746  -0.48466
 Alpha  occ. eigenvalues --   -0.47952  -0.47132  -0.45316  -0.44636  -0.43950
 Alpha  occ. eigenvalues --   -0.42904  -0.42293  -0.40643  -0.40294  -0.39308
 Alpha  occ. eigenvalues --   -0.38877  -0.38198  -0.37211  -0.36553  -0.35825
 Alpha  occ. eigenvalues --   -0.33990  -0.33753  -0.33677  -0.32131  -0.31577
 Alpha  occ. eigenvalues --   -0.30497  -0.26348  -0.25655  -0.25043  -0.23755
 Alpha  occ. eigenvalues --   -0.23581
 Alpha virt. eigenvalues --    0.07897   0.07920   0.08387   0.09923   0.10879
 Alpha virt. eigenvalues --    0.11861   0.12335   0.12852   0.13008   0.13421
 Alpha virt. eigenvalues --    0.13682   0.14499   0.15770   0.15890   0.16130

 Mulliken charges:
               1
     1  N   -0.634185
     2  C   -0.071149
     3  C   -0.206234
     4  C    0.088476
     5  O   -0.520736
     6  C    0.061188
     7  C    0.050401
     8  O   -0.507022
     9  C    0.042160
    10  C    0.046765
    11  O   -0.497149
    12  C    0.088295
    13  C   -0.183648
    14  C   -0.099985
    15  N   -0.068671
    16  H    0.253325
    17  H    0.251171
    18  H    0.107354
    19  H    0.107646
    20  H    0.102165
    21  H    0.102298
    22  H    0.088850
    23  H    0.081261
    24  H    0.096692
    25  H    0.094950
    26  H    0.097314
    27  H    0.100321
    28  H    0.110877
    29  H    0.094384
    30  H    0.095096
    31  H    0.100848
    32  H    0.079693
    33  H    0.017025
    34  H    0.086874
    35  H    0.123497
    36  H    0.101282
    37  H    0.114092
    38  H   -0.033425
    39  H    0.037904
 Sum of Mulliken charges =   0.00000

 Dipole moment (field-independent basis, Debye):
    X=              2.8163    Y=             -0.7462    Z=              5.0099  Tot=              5.7955
 Quadrupole moment (field-independent basis, Debye-Ang):
   XX=           -100.0023   YY=            -91.9175   ZZ=            -94.5764
   XY=             -5.3060   XZ=              7.0491   YZ=              0.0490

 Summary of Natural Population Analysis:

                                       Natural Population
                Natural  -----------------------------------------------
    Atom  No    Charge         Core      Valence    Rydberg      Total
 -----------------------------------------------------------------------
      N    1   -0.92593      1.99970     5.91109    0.01514     7.92593
      C    2   -0.27159      1.99936     4.25604    0.01619     6.27159
      C    3   -0.50475      1.99931     4.49407    0.01137     6.50475
      C    4   -0.10713      1.99927     4.09153    0.01633     6.10713
      O    5   -0.59550      1.99978     6.58272    0.01300     8.59550
      C    6   -0.12757      1.99927     4.11150    0.01680     6.12757
      C    7   -0.13215      1.99925     4.11560    0.01730     6.13215
      O    8   -0.59576      1.99979     6.58268    0.01328     8.59576
      C    9   -0.13186      1.99926     4.11243    0.02018     6.13186
      C   10   -0.14550      1.99926     4.12988    0.01636     6.14550
      O   11   -0.58523      1.99980     6.57059    0.01484     8.58523
      C   12   -0.14179      1.99923     4.11550    0.02706     6.14179
      C   13   -0.48854      1.99926     4.47687    0.01240     6.48854
      C   14   -0.36688      1.99934     4.34714    0.02039     6.36688
      N   15   -0.39848      1.99936     5.37492    0.02420     7.39848
      H   16    0.38482      0.00000     0.61246    0.00272     0.61518
      H   17    0.38487      0.00000     0.61220    0.00293     0.61513
      H   18    0.22718      0.00000     0.77067    0.00215     0.77282
      H   19    0.23431      0.00000     0.76386    0.00183     0.76569
      H   20    0.23561      0.00000     0.76163    0.00276     0.76439
      H   21    0.24287      0.00000     0.75444    0.00269     0.75713
      H   22    0.20246      0.00000     0.79459    0.00295     0.79754
      H   23    0.19760      0.00000     0.79889    0.00351     0.80240
      H   24    0.21038      0.00000     0.78621    0.00341     0.78962
      H   25    0.21345      0.00000     0.78387    0.00268     0.78655
      H   26    0.21046      0.00000     0.78602    0.00352     0.78954
      H   27    0.21406      0.00000     0.78340    0.00255     0.78594
      H   28    0.23286      0.00000     0.76464    0.00250     0.76714
      H   29    0.21060      0.00000     0.78626    0.00314     0.78940
      H   30    0.21364      0.00000     0.78341    0.00295     0.78636
      H   31    0.20584      0.00000     0.79099    0.00317     0.79416
      H   32    0.19978      0.00000     0.79336    0.00687     0.80022
      H   33    0.16404      0.00000     0.80395    0.03201     0.83596
      H   34    0.22193      0.00000     0.75839    0.01968     0.77807
      H   35    0.24750      0.00000     0.74647    0.00603     0.75250
      H   36    0.22927      0.00000     0.74980    0.02094     0.77073
      H   37    0.24644      0.00000     0.73534    0.01822     0.75356
      H   38    0.16344      0.00000     0.75010    0.08646     0.83656
      H   39    0.22526      0.00000     0.69879    0.07596     0.77474
 =======================================================================
   * Total *    0.00000     29.99126    91.44229    0.56645   122.00000

 Normal termination of Gaussian 16 at Thu Jul 18 04:11:32 2024.
