 Gaussian 16, Revision A.03,

 -------------------------------------------------------
 # opt=CalcFc B3LYP/6-31G** SCRF=(Solvent=water) scf=xqc
 -------------------------------------------------------

 ----------------------------------
 JCEZOHLWDIONSP-UHFFFAOYSA-N_conf_3
 ----------------------------------
 Symbolic Z-matrix:
 Charge =  0 Multiplicity = 1

 SCF Done:  E(RB3LYP) =  -730.676407042     A.U. after   11 cycles
 SCF Done:  E(RB3LYP) =  -730.681337632     A.U. after   10 cycles
 SCF Done:  E(RB3LYP) =  -730.681882636     A.U. after   10 cycles
 SCF Done:  E(RB3LYP) =  -730.681894173     A.U. after    9 cycles
 SCF Done:  E(RB3LYP) =  -730.681913995     A.U. after    9 cycles
 SCF Done:  E(RB3LYP) =  -730.681916585     A.U. after    9 cycles
 SCF Done:  E(RB3LYP) =  -730.681926200     A.U. after    9 cycles
 SCF Done:  E(RB3LYP) =  -730.681932609     A.U. after    8 cycles
 SCF Done:  E(RB3LYP) =  -730.681932967     A.U. after    7 cycles
 SCF Done:  E(RB3LYP) =  -730.681932176     A.U. after    7 cycles
 SCF Done:  E(RB3LYP) =  -730.681932671     A.U. after    7 cycles
 SCF Done:  E(RB3LYP) =  -730.681932934     A.U. after    7 cycles
 SCF Done:  E(RB3LYP) =  -730.681932670     A.U. after    7 cycles
 SCF Done:  E(RB3LYP) =  -730.681932765     A.U. after    5 cycles
 Optimization completed.
    -- Stationary point found.
 Normal termination of Gaussian 16 at Thu Jul 18 04:00:41 2024.

 ----------------------------------------------------------------------
 # freq B3LYP/6-31G** SCRF=(Solvent=water) volume NMR pop=NPA density=c
 urrent Geom=AllCheck Guess=Read
 ----------------------------------------------------------------------

 Structure from the checkpoint file:  "JCEZOHLWDIONSP-UHFFFAOYSA-N_conf_3_1.chk"
 ----------------------------------
 JCEZOHLWDIONSP-UHFFFAOYSA-N_conf_3
 ----------------------------------
 Charge =  0 Multiplicity = 1

 SCF Done:  E(RB3LYP) =  -730.681932765     A.U. after    1 cycles

      1  N    Isotropic =   232.4135   Anisotropy =    24.0264

      2  C    Isotropic =   150.5080   Anisotropy =    35.0901

      3  C    Isotropic =   155.0515   Anisotropy =    34.9657

      4  C    Isotropic =   123.0463   Anisotropy =    73.4332

      5  O    Isotropic =   291.4658   Anisotropy =    45.4139

      6  C    Isotropic =   123.2281   Anisotropy =    53.9770

      7  C    Isotropic =   120.1827   Anisotropy =    60.1889

      8  O    Isotropic =   298.9884   Anisotropy =    38.7689

      9  C    Isotropic =   124.7370   Anisotropy =    76.3524

     10  C    Isotropic =   123.1089   Anisotropy =    76.1085

     11  O    Isotropic =   296.8126   Anisotropy =    42.3842

     12  C    Isotropic =   117.7736   Anisotropy =    59.5616

     13  C    Isotropic =   159.5404   Anisotropy =    11.8885

     14  C    Isotropic =   145.9482   Anisotropy =    21.9149

     15  N    Isotropic =   233.1442   Anisotropy =    46.1295

     16  H    Isotropic =    31.4122   Anisotropy =    12.4580

     17  H    Isotropic =    31.4246   Anisotropy =    12.3813

     18  H    Isotropic =    29.3773   Anisotropy =     6.3381

     19  H    Isotropic =    29.4333   Anisotropy =     6.3078

     20  H    Isotropic =    30.4643   Anisotropy =     4.1727

     21  H    Isotropic =    29.8140   Anisotropy =     4.4165

     22  H    Isotropic =    28.5644   Anisotropy =     5.4092

     23  H    Isotropic =    28.0761   Anisotropy =     6.4200

     24  H    Isotropic =    28.6688   Anisotropy =     6.2932

     25  H    Isotropic =    27.7256   Anisotropy =     5.3367

     26  H    Isotropic =    28.0997   Anisotropy =     6.0853

     27  H    Isotropic =    28.2842   Anisotropy =     6.3460

     28  H    Isotropic =    28.4414   Anisotropy =     5.5126

     29  H    Isotropic =    27.9941   Anisotropy =     7.0851

     30  H    Isotropic =    27.8263   Anisotropy =     6.3566

     31  H    Isotropic =    28.2913   Anisotropy =     5.6737

     32  H    Isotropic =    27.6828   Anisotropy =     5.0623

     33  H    Isotropic =    28.3692   Anisotropy =     5.1932

     34  H    Isotropic =    30.0340   Anisotropy =     6.4375

     35  H    Isotropic =    30.3699   Anisotropy =     8.8523

     36  H    Isotropic =    28.6889   Anisotropy =     6.8779

     37  H    Isotropic =    29.0258   Anisotropy =     8.3775

     38  H    Isotropic =    30.2555   Anisotropy =    14.1459

     39  H    Isotropic =    31.4482   Anisotropy =    15.8798

  Exact polarizability: 183.407   0.962 161.791   2.229  -1.347 158.709
 Approx polarizability: 179.599   0.552 171.607   2.205  -0.459 175.979

                      1                      2                      3
                      A                      A                      A
 Frequencies --     14.1666                22.8738                27.6511
 Red. masses --      4.6088                 3.4893                 3.2701
 Frc consts  --      0.0005                 0.0011                 0.0015
 IR Inten    --      0.0079                 1.5341                 3.2820

                      4                      5                      6
                      A                      A                      A
 Frequencies --     42.4658                56.2532                74.3985
 Red. masses --      3.2784                 2.2392                 2.5338
 Frc consts  --      0.0035                 0.0042                 0.0083
 IR Inten    --      1.1463                 2.0772                 2.2226

                      7                      8                      9
                      A                      A                      A
 Frequencies --     82.2269                97.7074               108.6301
 Red. masses --      3.3635                 2.3426                 2.4630
 Frc consts  --      0.0134                 0.0132                 0.0171
 IR Inten    --      4.8569                 3.5679                 2.8998

                     10                     11                     12
                      A                      A                      A
 Frequencies --    124.9591               132.7391               139.4480
 Red. masses --      3.9277                 3.4074                 2.9309
 Frc consts  --      0.0361                 0.0354                 0.0336
 IR Inten    --      3.7916                 2.8617                 0.9724

                     13                     14                     15
                      A                      A                      A
 Frequencies --    176.8242               207.2910               256.0176
 Red. masses --      3.7801                 3.9467                 2.6678
 Frc consts  --      0.0696                 0.0999                 0.1030
 IR Inten    --      4.3185                14.0049                 0.5820

                     16                     17                     18
                      A                      A                      A
 Frequencies --    280.8037               287.7819               294.6514
 Red. masses --      2.3791                 1.2017                 1.5114
 Frc consts  --      0.1105                 0.0586                 0.0773
 IR Inten    --      6.9282                68.2052                54.8526

                     19                     20                     21
                      A                      A                      A
 Frequencies --    310.5559               326.8324               364.7676
 Red. masses --      1.5364                 2.6570                 3.1861
 Frc consts  --      0.0873                 0.1672                 0.2498
 IR Inten    --     32.5392                18.3527                 4.4839

                     22                     23                     24
                      A                      A                      A
 Frequencies --    384.9452               421.1011               449.3910
 Red. masses --      2.3898                 2.9350                 2.7047
 Frc consts  --      0.2086                 0.3066                 0.3218
 IR Inten    --     25.6325                10.0954                 5.2499

                     25                     26                     27
                      A                      A                      A
 Frequencies --    478.0288               553.5873               602.0841
 Red. masses --      2.8551                 2.7347                 2.6519
 Frc consts  --      0.3844                 0.4938                 0.5664
 IR Inten    --      1.8003                 5.9199                 8.2555

                     28                     29                     30
                      A                      A                      A
 Frequencies --    756.2551               796.4005               821.4284
 Red. masses --      1.0809                 2.0333                 1.2431
 Frc consts  --      0.3642                 0.7598                 0.4942
 IR Inten    --      5.0301                29.1608                 3.6938

                     31                     32                     33
                      A                      A                      A
 Frequencies --    843.3737               871.8468               880.4164
 Red. masses --      1.3697                 1.9065                 1.9704
 Frc consts  --      0.5740                 0.8538                 0.8999
 IR Inten    --      7.6542                14.0038                52.7644

                     34                     35                     36
                      A                      A                      A
 Frequencies --    890.4377               905.9302               911.2313
 Red. masses --      1.4361                 2.0677                 1.7433
 Frc consts  --      0.6709                 0.9998                 0.8529
 IR Inten    --     42.7424                43.9577               242.3217

                     37                     38                     39
                      A                      A                      A
 Frequencies --    936.4401               981.6559              1015.5017
 Red. masses --      1.6799                 1.6936                 3.0981
 Frc consts  --      0.8679                 0.9616                 1.8824
 IR Inten    --     33.0954                64.6465                16.3038

                     40                     41                     42
                      A                      A                      A
 Frequencies --   1031.9716              1033.6672              1045.5883
 Red. masses --      1.8273                 1.7573                 2.4733
 Frc consts  --      1.1465                 1.1063                 1.5931
 IR Inten    --     15.7468                19.5714                24.2336

                     43                     44                     45
                      A                      A                      A
 Frequencies --   1054.6164              1064.8636              1096.5960
 Red. masses --      2.5132                 4.0040                 3.3544
 Frc consts  --      1.6469                 2.6751                 2.3766
 IR Inten    --     43.6329                41.1391                56.6783

                     46                     47                     48
                      A                      A                      A
 Frequencies --   1104.6708              1113.0706              1131.4309
 Red. masses --      2.6429                 2.6960                 4.1782
 Frc consts  --      1.9002                 1.9679                 3.1513
 IR Inten    --     51.4992                19.3057               369.2361

                     49                     50                     51
                      A                      A                      A
 Frequencies --   1134.5461              1145.0225              1155.0220
 Red. masses --      4.2813                 2.2426                 1.7764
 Frc consts  --      3.2469                 1.7324                 1.3963
 IR Inten    --    201.9374                22.5317                40.1201

                     52                     53                     54
                      A                      A                      A
 Frequencies --   1160.3498              1179.6954              1201.9610
 Red. masses --      5.5294                 1.6554                 1.3404
 Frc consts  --      4.3864                 1.3573                 1.1409
 IR Inten    --    162.9628                 2.6112                 2.6135

                     55                     56                     57
                      A                      A                      A
 Frequencies --   1227.0816              1235.8720              1262.2591
 Red. masses --      1.6043                 1.1734                 1.1434
 Frc consts  --      1.4233                 1.0559                 1.0734
 IR Inten    --     17.9262                 1.6997                12.0160

                     58                     59                     60
                      A                      A                      A
 Frequencies --   1272.1442              1293.7626              1298.7826
 Red. masses --      1.2502                 1.2911                 1.1203
 Frc consts  --      1.1920                 1.2733                 1.1134
 IR Inten    --     33.3944                 3.1694                 5.6719

                     61                     62                     63
                      A                      A                      A
 Frequencies --   1303.2346              1319.8490              1326.0249
 Red. masses --      1.1469                 1.1017                 1.1829
 Frc consts  --      1.1477                 1.1307                 1.2254
 IR Inten    --      3.9748                13.1000                 5.9803

                     64                     65                     66
                      A                      A                      A
 Frequencies --   1338.5807              1349.6068              1356.1308
 Red. masses --      1.1047                 1.2102                 1.2195
 Frc consts  --      1.1662                 1.2988                 1.3214
 IR Inten    --     17.3301                 4.9498                58.0293

                     67                     68                     69
                      A                      A                      A
 Frequencies --   1389.7693              1399.6797              1401.7209
 Red. masses --      1.3626                 1.2129                 1.2185
 Frc consts  --      1.5506                 1.4000                 1.4105
 IR Inten    --      0.2479                 7.4732                 4.1941

                     70                     71                     72
                      A                      A                      A
 Frequencies --   1405.5331              1423.1713              1431.2650
 Red. masses --      1.3299                 1.3524                 1.3807
 Frc consts  --      1.5479                 1.6139                 1.6664
 IR Inten    --     33.1878                36.7009                 8.9842

                     73                     74                     75
                      A                      A                      A
 Frequencies --   1441.1053              1445.5667              1466.6517
 Red. masses --      1.4172                 1.3898                 1.5545
 Frc consts  --      1.7341                 1.7111                 1.9701
 IR Inten    --      3.5865                14.8530                 2.8127

                     76                     77                     78
                      A                      A                      A
 Frequencies --   1470.9511              1488.5098              1500.2922
 Red. masses --      1.1044                 1.0871                 1.0862
 Frc consts  --      1.4079                 1.4191                 1.4405
 IR Inten    --     10.4210                 0.1341                 1.1031

                     79                     80                     81
                      A                      A                      A
 Frequencies --   1505.1218              1512.0980              1514.2159
 Red. masses --      1.0835                 1.0892                 1.0918
 Frc consts  --      1.4461                 1.4673                 1.4749
 IR Inten    --      7.2328                18.2351                 4.6301

                     82                     83                     84
                      A                      A                      A
 Frequencies --   1521.4289              1521.9997              1529.8021
 Red. masses --      1.0893                 1.0985                 1.0892
 Frc consts  --      1.4856                 1.4992                 1.5019
 IR Inten    --      0.9108                 5.1069                 6.0363

                     85                     86                     87
                      A                      A                      A
 Frequencies --   1540.6214              1647.3207              1661.5142
 Red. masses --      1.0919                 1.0850                 1.0866
 Frc consts  --      1.5269                 1.7347                 1.7674
 IR Inten    --      1.7582                46.1843                32.0075

                     88                     89                     90
                      A                      A                      A
 Frequencies --   2944.9963              2979.5944              2983.6485
 Red. masses --      1.0734                 1.0554                 1.0581
 Frc consts  --      5.4852                 5.5205                 5.5497
 IR Inten    --    119.7499                24.3751                44.5032

                     91                     92                     93
                      A                      A                      A
 Frequencies --   2985.8341              2987.6939              2994.2861
 Red. masses --      1.0629                 1.0622                 1.0591
 Frc consts  --      5.5830                 5.5865                 5.5948
 IR Inten    --     62.6231                61.0798               140.7086

                     94                     95                     96
                      A                      A                      A
 Frequencies --   3013.2438              3018.5310              3021.9274
 Red. masses --      1.0919                 1.0832                 1.1037
 Frc consts  --      5.8413                 5.8152                 5.9385
 IR Inten    --     75.7837               179.6870                10.1212

                     97                     98                     99
                      A                      A                      A
 Frequencies --   3026.8404              3028.6298              3032.1386
 Red. masses --      1.0606                 1.0923                 1.0678
 Frc consts  --      5.7251                 5.9031                 5.7839
 IR Inten    --     28.2048                36.9104                46.0686

                    100                    101                    102
                      A                      A                      A
 Frequencies --   3037.9144              3042.0604              3054.6871
 Red. masses --      1.0928                 1.0754                 1.0794
 Frc consts  --      5.9420                 5.8635                 5.9344
 IR Inten    --    161.6495                51.3889               104.3821

                    103                    104                    105
                      A                      A                      A
 Frequencies --   3058.2553              3069.2678              3087.2513
 Red. masses --      1.1006                 1.0990                 1.1057
 Frc consts  --      6.0648                 6.0998                 6.2093
 IR Inten    --      7.3054                11.9256               163.3736

                    106                    107                    108
                      A                      A                      A
 Frequencies --   3088.3304              3095.8570              3471.7061
 Red. masses --      1.1032                 1.1009                 1.0502
 Frc consts  --      6.1997                 6.2165                 7.4579
 IR Inten    --     59.0318                63.0218                 1.0496

                    109                    110                    111
                      A                      A                      A
 Frequencies --   3480.4436              3548.9468              3565.9532
 Red. masses --      1.0504                 1.0916                 1.0920
 Frc consts  --      7.4967                 8.1004                 8.1815
 IR Inten    --     16.0854                 0.0444                 8.9682

 - Thermochemistry -
 -------------------
 Temperature   298.150 Kelvin.  Pressure   1.00000 Atm.
 Atom     1 has atomic number  7 and mass  14.00307

 Molecular mass:   220.17869 amu.
 Principal axes and moments of inertia in atomic units:
                           1         2         3
     Eigenvalues --  1463.97458********************
           X            0.99999   0.00029   0.00405
           Y           -0.00031   0.99998   0.00556
           Z           -0.00405  -0.00556   0.99998
 This molecule is an asymmetric top.
 Rotational symmetry number  1.
 Warning -- assumption of classical behavior for rotation
           may cause significant error
 Rotational temperatures (Kelvin)      0.05916     0.00599     0.00569
 Rotational constants (GHZ):           1.23277     0.12478     0.11854
 Zero-point vibrational energy     927117.1 (Joules/Mol)
                                  221.58631 (Kcal/Mol)
 Warning -- explicit consideration of  27 degrees of freedom as
           vibrations may cause significant error
 Vibrational temperatures:     20.38    32.91    39.78    61.10    80.94
          (Kelvin)            107.04   118.31   140.58   156.29   179.79
                              190.98   200.63   254.41   298.25   368.35
                              404.01   414.05   423.94   446.82   470.24
                              524.82   553.85   605.87   646.57   687.78
                              796.49   866.26  1088.08  1145.84  1181.85
                             1213.43  1254.39  1266.72  1281.14  1303.43
                             1311.06  1347.33  1412.38  1461.08  1484.78
                             1487.22  1504.37  1517.36  1532.10  1577.76
                             1589.37  1601.46  1627.88  1632.36  1647.43
                             1661.82  1669.48  1697.32  1729.35  1765.50
                             1778.14  1816.11  1830.33  1861.44  1868.66
                             1875.06  1898.97  1907.85  1925.92  1941.78
                             1951.17  1999.57  2013.83  2016.76  2022.25
                             2047.63  2059.27  2073.43  2079.85  2110.18
                             2116.37  2141.63  2158.59  2165.53  2175.57
                             2178.62  2189.00  2189.82  2201.04  2216.61
                             2370.13  2390.55  4237.19  4286.97  4292.80
                             4295.95  4298.63  4308.11  4335.39  4342.99
                             4347.88  4354.95  4357.52  4362.57  4370.88
                             4376.85  4395.01  4400.15  4415.99  4441.87
                             4443.42  4454.25  4995.01  5007.58  5106.14
                             5130.61

 Zero-point correction=                           0.353120 (Hartree/Particle)
 Thermal correction to Energy=                    0.372214
 Thermal correction to Enthalpy=                  0.373158
 Thermal correction to Gibbs Free Energy=         0.301362
 Sum of electronic and zero-point Energies=           -730.328813
 Sum of electronic and thermal Energies=              -730.309719
 Sum of electronic and thermal Enthalpies=            -730.308775
 Sum of electronic and thermal Free Energies=         -730.380571

                     E (Thermal)             CV                S
                      KCal/Mol        Cal/Mol-Kelvin    Cal/Mol-Kelvin
 Total                  233.568             66.526            151.108
 Electronic               0.000              0.000              0.000
 Translational            0.889              2.981             42.071
 Rotational               0.889              2.981             34.132
 Vibrational            231.790             60.564             74.905
 Vibration     1          0.593              1.986              7.319
 Vibration     2          0.593              1.985              6.368
 Vibration     3          0.593              1.984              5.991
 Vibration     4          0.595              1.980              5.141
 Vibration     5          0.596              1.975              4.584
 Vibration     6          0.599              1.966              4.033
 Vibration     7          0.600              1.961              3.837
 Vibration     8          0.603              1.951              3.500
 Vibration     9          0.606              1.942              3.293
 Vibration    10          0.610              1.928              3.022
 Vibration    11          0.613              1.921              2.906
 Vibration    12          0.615              1.914              2.811
 Vibration    13          0.628              1.871              2.362
 Vibration    14          0.641              1.829              2.067
 Vibration    15          0.666              1.753              1.689
 Vibration    16          0.680              1.709              1.529
 Vibration    17          0.685              1.696              1.487
 Vibration    18          0.689              1.684              1.447
 Vibration    19          0.699              1.654              1.359
 Vibration    20          0.710              1.622              1.276
 Vibration    21          0.738              1.545              1.102
 Vibration    22          0.754              1.502              1.020
 Vibration    23          0.784              1.424              0.888
 Vibration    24          0.808              1.362              0.798
 Vibration    25          0.835              1.299              0.715
 Vibration    26          0.909              1.132              0.537
 Vibration    27          0.960              1.027              0.446

 Optimization completed.
    -- Stationary point found.
 Normal termination of Gaussian 16 at Thu Jul 18 04:19:27 2024.
 Gaussian 16:  ES64L-G16RevA.03 25-Dec-2016

 ----------------------------------------------------------------------
 # TD(NStates=10, Root=1) B3LYP/6-31G** SCRF=(Solvent=water) volume pop
 =NPA density=current Geom=AllCheck Guess=Read
 ----------------------------------------------------------------------

 Structure from the checkpoint file:  "JCEZOHLWDIONSP-UHFFFAOYSA-N_conf_3_2.chk"
 ----------------------------------
 JCEZOHLWDIONSP-UHFFFAOYSA-N_conf_3
 ----------------------------------
 Charge =  0 Multiplicity = 1

                         Standard orientation:
 ---------------------------------------------------------------------
 Center     Atomic      Atomic             Coordinates (Angstroms)
 Number     Number       Type             X           Y           Z
 ---------------------------------------------------------------------
      1          7           0       -6.521582    2.292138   -0.248059
      2          6           0       -6.068306    1.029741    0.352257
      3          6           0       -4.595968    0.664614    0.103940
      4          6           0       -4.203541   -0.658028    0.767936
      5          8           0       -2.818720   -0.975392    0.645573
      6          6           0       -2.448704   -1.492338   -0.624085
      7          6           0       -0.992604   -1.906218   -0.584235
      8          8           0       -0.178229   -0.747241   -0.485755
      9          6           0        1.207185   -1.045198   -0.434783
     10          6           0        1.952091    0.286466   -0.343633
     11          8           0        3.362910    0.113743   -0.345258
     12          6           0        3.926672   -0.190403    0.934529
     13          6           0        5.447636   -0.226701    0.831060
     14          6           0        6.102081    1.110054    0.461788
     15          7           0        5.950610    1.412020   -0.970398
     16          1           0       -5.928259    3.048648    0.090593
     17          1           0       -6.355526    2.256746   -1.253140
     18          1           0       -6.252696    1.086708    1.432768
     19          1           0       -6.713287    0.227178   -0.027846
     20          1           0       -3.949070    1.460327    0.495755
     21          1           0       -4.420665    0.612264   -0.978164
     22          1           0       -4.815293   -1.482688    0.367822
     23          1           0       -4.396032   -0.600788    1.845360
     24          1           0       -3.061162   -2.373195   -0.875208
     25          1           0       -2.590927   -0.748378   -1.421133
     26          1           0       -0.819946   -2.573985    0.274168
     27          1           0       -0.755005   -2.468828   -1.501100
     28          1           0        1.529617   -1.587000   -1.337966
     29          1           0        1.433648   -1.683972    0.433039
     30          1           0        1.706066    0.892526   -1.221193
     31          1           0        1.622828    0.835925    0.549946
     32          1           0        3.556221   -1.159240    1.298914
     33          1           0        3.615097    0.576095    1.662257
     34          1           0        5.747020   -0.989628    0.102216
     35          1           0        5.825377   -0.550441    1.808541
     36          1           0        5.693859    1.893052    1.126160
     37          1           0        7.175140    1.049795    0.681834
     38          1           0        4.954351    1.440740   -1.178671
     39          1           0        6.308507    2.348215   -1.150879
 ---------------------------------------------------------------------

 SCF Done:  E(RB3LYP) =  -730.681932765     A.U. after    2 cycles

 Excitation energies and oscillator strengths:

 Excited State   1:      Singlet-A      7.4054 eV  167.42 nm  f=0.0081  <S**2>=0.000
      61 -> 62         0.61976
      61 -> 64         0.21529
      61 -> 66        -0.22228
 This state for optimization and/or second-order correction.
 Total Energy, E(TD-HF/TD-DFT) =  -730.409790751
 Copying the excited state density for this state as the 1-particle RhoCI density.

 Excited State   2:      Singlet-A      7.4314 eV  166.84 nm  f=0.0179  <S**2>=0.000
      60 -> 63         0.67176
      60 -> 65        -0.11682

 Excited State   3:      Singlet-A      7.8564 eV  157.81 nm  f=0.0171  <S**2>=0.000
      58 -> 64         0.10503
      59 -> 62         0.33105
      59 -> 64        -0.12231
      60 -> 62         0.50497
      60 -> 64        -0.25587
      60 -> 65        -0.14375

 Excited State   4:      Singlet-A      7.9345 eV  156.26 nm  f=0.0194  <S**2>=0.000
      58 -> 62         0.43126
      59 -> 62         0.40704
      60 -> 62        -0.19027
      60 -> 64         0.12577
      60 -> 65         0.10000
      61 -> 66        -0.18280

 Excited State   5:      Singlet-A      8.0827 eV  153.40 nm  f=0.0182  <S**2>=0.000
      57 -> 62         0.34218
      57 -> 64        -0.15608
      58 -> 62        -0.26779
      59 -> 62         0.29012
      59 -> 64        -0.23249
      60 -> 64         0.10072
      60 -> 65         0.24686
      61 -> 66         0.14442

 Excited State   6:      Singlet-A      8.1511 eV  152.11 nm  f=0.0129  <S**2>=0.000
      58 -> 62        -0.20431
      59 -> 62        -0.10484
      59 -> 64        -0.10673
      61 -> 62        -0.30408
      61 -> 64         0.43008
      61 -> 66        -0.32968

 Excited State   7:      Singlet-A      8.1591 eV  151.96 nm  f=0.0177  <S**2>=0.000
      59 -> 62        -0.10676
      59 -> 64         0.15087
      60 -> 62         0.37126
      60 -> 64         0.22088
      60 -> 65         0.45094
      60 -> 66         0.10329

 Excited State   8:      Singlet-A      8.2797 eV  149.74 nm  f=0.0054  <S**2>=0.000
      58 -> 62         0.12349
      61 -> 63        -0.11053
      61 -> 64         0.41028
      61 -> 65        -0.23230
      61 -> 66         0.34990
      61 -> 67         0.24807
      61 -> 68         0.15437

 Excited State   9:      Singlet-A      8.3040 eV  149.31 nm  f=0.0035  <S**2>=0.000
      57 -> 62         0.15745
      58 -> 64        -0.10291
      59 -> 64         0.14421
      60 -> 62         0.19306
      60 -> 63        -0.13563
      60 -> 64         0.47054
      60 -> 65        -0.26869
      60 -> 67        -0.15329
      60 -> 68         0.10241
      60 -> 69         0.14164

 Excited State  10:      Singlet-A      8.3927 eV  147.73 nm  f=0.0002  <S**2>=0.000
      61 -> 63         0.69063
      61 -> 64         0.14199

 The electronic state is 1-A.
 Alpha  occ. eigenvalues --  -19.15495 -19.15271 -19.14766 -14.31138 -14.30129
 Alpha  occ. eigenvalues --  -10.23279 -10.23204 -10.23106 -10.23061 -10.23030
 Alpha  occ. eigenvalues --  -10.22846 -10.20563 -10.20190 -10.18094 -10.17674
 Alpha  occ. eigenvalues --   -1.04143  -1.03181  -1.02271  -0.87654  -0.86885
 Alpha  occ. eigenvalues --   -0.78480  -0.76892  -0.74773  -0.71273  -0.66166
 Alpha  occ. eigenvalues --   -0.64536  -0.60989  -0.60608  -0.58424  -0.57667
 Alpha  occ. eigenvalues --   -0.51254  -0.50395  -0.49790  -0.48854  -0.48608
 Alpha  occ. eigenvalues --   -0.47950  -0.46553  -0.45435  -0.44407  -0.43822
 Alpha  occ. eigenvalues --   -0.43344  -0.41924  -0.41184  -0.40531  -0.40057
 Alpha  occ. eigenvalues --   -0.38547  -0.38008  -0.36141  -0.36015  -0.35671
 Alpha  occ. eigenvalues --   -0.34157  -0.33800  -0.33428  -0.32530  -0.31157
 Alpha  occ. eigenvalues --   -0.30955  -0.26594  -0.25986  -0.25597  -0.23266
 Alpha  occ. eigenvalues --   -0.23086
 Alpha virt. eigenvalues --    0.07651   0.08666   0.09035   0.10069   0.11052
 Alpha virt. eigenvalues --    0.11473   0.11822   0.12355   0.13161   0.13237
 Alpha virt. eigenvalues --    0.13915   0.14624   0.15419   0.15887   0.16884

 Mulliken charges:
               1
     1  N   -0.637149
     2  C   -0.063811
     3  C   -0.204986
     4  C    0.062842
     5  O   -0.517417
     6  C    0.054646
     7  C    0.061111
     8  O   -0.512404
     9  C    0.047896
    10  C   -0.006997
    11  O   -0.466927
    12  C    0.081061
    13  C   -0.184546
    14  C   -0.057585
    15  N   -0.165507
    16  H    0.250382
    17  H    0.250323
    18  H    0.105766
    19  H    0.106355
    20  H    0.101299
    21  H    0.102767
    22  H    0.089154
    23  H    0.102739
    24  H    0.088217
    25  H    0.096214
    26  H    0.086937
    27  H    0.086057
    28  H    0.079278
    29  H    0.080994
    30  H    0.075745
    31  H    0.066332
    32  H    0.039826
    33  H    0.030948
    34  H    0.115303
    35  H    0.047246
    36  H    0.127062
    37  H    0.071255
    38  H    0.193715
    39  H    0.115857
 Sum of Mulliken charges =  -0.00000

 Dipole moment (field-independent basis, Debye):
    X=              4.9694    Y=              0.8663    Z=             -1.7223  Tot=              5.3303
 Quadrupole moment (field-independent basis, Debye-Ang):
   XX=            -78.6020   YY=            -89.5950   ZZ=            -93.0529
   XY=             17.1902   XZ=              2.2034   YZ=              0.4101

 Summary of Natural Population Analysis:

                                       Natural Population
                Natural  -----------------------------------------------
    Atom  No    Charge         Core      Valence    Rydberg      Total
 -----------------------------------------------------------------------
      N    1   -0.92243      1.99971     5.90749    0.01524     7.92243
      C    2   -0.26664      1.99936     4.25242    0.01486     6.26664
      C    3   -0.51510      1.99931     4.50491    0.01087     6.51510
      C    4   -0.10833      1.99927     4.09051    0.01855     6.10833
      O    5   -0.59799      1.99980     6.58530    0.01290     8.59799
      C    6   -0.12876      1.99925     4.11245    0.01706     6.12876
      C    7   -0.13201      1.99927     4.11582    0.01692     6.13201
      O    8   -0.61312      1.99978     6.59882    0.01452     8.61312
      C    9   -0.15553      1.99930     4.13358    0.02265     6.15553
      C   10   -0.18179      1.99932     4.15162    0.03086     6.18179
      O   11   -0.62041      1.99979     6.60606    0.01455     8.62041
      C   12   -0.14006      1.99928     4.12008    0.02070     6.14006
      C   13   -0.49827      1.99931     4.48631    0.01265     6.49827
      C   14   -0.34546      1.99928     4.32940    0.01678     6.34546
      N   15   -0.35347      1.99934     5.34250    0.01163     7.35347
      H   16    0.38432      0.00000     0.61278    0.00291     0.61568
      H   17    0.38423      0.00000     0.61287    0.00290     0.61577
      H   18    0.22549      0.00000     0.77238    0.00213     0.77451
      H   19    0.22577      0.00000     0.77209    0.00214     0.77423
      H   20    0.23474      0.00000     0.76243    0.00284     0.76526
      H   21    0.23159      0.00000     0.76625    0.00216     0.76841
      H   22    0.20181      0.00000     0.79520    0.00298     0.79819
      H   23    0.22529      0.00000     0.77282    0.00189     0.77471
      H   24    0.20792      0.00000     0.78874    0.00334     0.79208
      H   25    0.20838      0.00000     0.78831    0.00332     0.79162
      H   26    0.20562      0.00000     0.79037    0.00401     0.79438
      H   27    0.20902      0.00000     0.78773    0.00325     0.79098
      H   28    0.19813      0.00000     0.79835    0.00351     0.80187
      H   29    0.19758      0.00000     0.79828    0.00414     0.80242
      H   30    0.20859      0.00000     0.78313    0.00827     0.79141
      H   31    0.18935      0.00000     0.80202    0.00863     0.81065
      H   32    0.17347      0.00000     0.80998    0.01655     0.82653
      H   33    0.16890      0.00000     0.81172    0.01938     0.83110
      H   34    0.24869      0.00000     0.74718    0.00413     0.75131
      H   35    0.18861      0.00000     0.79187    0.01951     0.81139
      H   36    0.25922      0.00000     0.71105    0.02974     0.74078
      H   37    0.20530      0.00000     0.76217    0.03253     0.79470
      H   38    0.33894      0.00000     0.61936    0.04170     0.66106
      H   39    0.25754      0.00000     0.67061    0.07185     0.74246
 =======================================================================
   * Total *   -0.00089     29.99137    91.46496    0.54455   122.00089

 Normal termination of Gaussian 16 at Thu Jul 18 04:39:00 2024.
