 Gaussian 16, Revision A.03,

 -------------------------------------------------------
 # opt=CalcFc B3LYP/6-31G** SCRF=(Solvent=water) scf=xqc
 -------------------------------------------------------

 ----------------------------------
 JCEZOHLWDIONSP-UHFFFAOYSA-N_conf_1
 ----------------------------------
 Symbolic Z-matrix:
 Charge =  0 Multiplicity = 1

 SCF Done:  E(RB3LYP) =  -730.676017845     A.U. after   11 cycles
 SCF Done:  E(RB3LYP) =  -730.679496346     A.U. after   12 cycles
 SCF Done:  E(RB3LYP) =  -730.679522214     A.U. after   12 cycles
 SCF Done:  E(RB3LYP) =  -730.634949646     A.U. after   12 cycles
 SCF Done:  E(RB3LYP) =  -730.679904865     A.U. after   10 cycles
 SCF Done:  E(RB3LYP) =  -730.679976596     A.U. after    9 cycles
 SCF Done:  E(RB3LYP) =  -730.679988145     A.U. after    9 cycles
 SCF Done:  E(RB3LYP) =  -730.679988021     A.U. after    9 cycles
 SCF Done:  E(RB3LYP) =  -730.679987856     A.U. after    9 cycles
 SCF Done:  E(RB3LYP) =  -730.679991616     A.U. after    8 cycles
 SCF Done:  E(RB3LYP) =  -730.679991934     A.U. after    7 cycles
 SCF Done:  E(RB3LYP) =  -730.679991938     A.U. after    5 cycles
 SCF Done:  E(RB3LYP) =  -730.679992025     A.U. after    6 cycles
 Optimization completed on the basis of negligible forces.
    -- Stationary point found.
 Normal termination of Gaussian 16 at Thu Jul 18 03:47:07 2024.

 ----------------------------------------------------------------------
 # freq B3LYP/6-31G** SCRF=(Solvent=water) volume NMR pop=NPA density=c
 urrent Geom=AllCheck Guess=Read
 ----------------------------------------------------------------------

 Structure from the checkpoint file:  "JCEZOHLWDIONSP-UHFFFAOYSA-N_conf_1_1.chk"
 ----------------------------------
 JCEZOHLWDIONSP-UHFFFAOYSA-N_conf_1
 ----------------------------------
 Charge =  0 Multiplicity = 1

 SCF Done:  E(RB3LYP) =  -730.679992025     A.U. after    1 cycles

      1  N    Isotropic =   238.8459   Anisotropy =    25.5562

      2  C    Isotropic =   153.0491   Anisotropy =    35.5622

      3  C    Isotropic =   158.6682   Anisotropy =    10.4796

      4  C    Isotropic =   128.9382   Anisotropy =    70.4542

      5  O    Isotropic =   304.9388   Anisotropy =    28.2115

      6  C    Isotropic =   120.8966   Anisotropy =    59.8796

      7  C    Isotropic =   125.4751   Anisotropy =    68.1818

      8  O    Isotropic =   302.9278   Anisotropy =    45.3264

      9  C    Isotropic =   125.1451   Anisotropy =    75.6159

     10  C    Isotropic =   125.0230   Anisotropy =    75.3355

     11  O    Isotropic =   301.9356   Anisotropy =    42.4121

     12  C    Isotropic =   123.2143   Anisotropy =    64.8011

     13  C    Isotropic =   153.0119   Anisotropy =    30.7282

     14  C    Isotropic =   148.9194   Anisotropy =    38.9111

     15  N    Isotropic =   231.9495   Anisotropy =    25.3080

     16  H    Isotropic =    31.1078   Anisotropy =    15.8633

     17  H    Isotropic =    31.2182   Anisotropy =    11.5964

     18  H    Isotropic =    28.4902   Anisotropy =     6.4592

     19  H    Isotropic =    29.3895   Anisotropy =     8.1861

     20  H    Isotropic =    30.3121   Anisotropy =     8.4860

     21  H    Isotropic =    30.0782   Anisotropy =     7.5287

     22  H    Isotropic =    28.5337   Anisotropy =     4.9780

     23  H    Isotropic =    27.8696   Anisotropy =     5.5148

     24  H    Isotropic =    27.7034   Anisotropy =     7.3910

     25  H    Isotropic =    28.4191   Anisotropy =     6.1503

     26  H    Isotropic =    27.9812   Anisotropy =     5.7883

     27  H    Isotropic =    28.3050   Anisotropy =     6.2253

     28  H    Isotropic =    27.6135   Anisotropy =     7.8459

     29  H    Isotropic =    28.5061   Anisotropy =     5.1655

     30  H    Isotropic =    27.6565   Anisotropy =     7.7227

     31  H    Isotropic =    28.5935   Anisotropy =     5.0029

     32  H    Isotropic =    28.5717   Anisotropy =     5.3275

     33  H    Isotropic =    27.8769   Anisotropy =     5.4266

     34  H    Isotropic =    30.4762   Anisotropy =     6.3859

     35  H    Isotropic =    30.1611   Anisotropy =     4.6004

     36  H    Isotropic =    28.8755   Anisotropy =     6.2611

     37  H    Isotropic =    29.3682   Anisotropy =     5.8642

     38  H    Isotropic =    31.4950   Anisotropy =    12.7512

     39  H    Isotropic =    31.4554   Anisotropy =    12.7535

  Exact polarizability: 189.087   6.173 160.296   1.552  -0.476 152.327
 Approx polarizability: 182.027   5.381 171.819   1.445   1.797 172.931

                      1                      2                      3
                      A                      A                      A
 Frequencies --     14.1959                20.4575                27.2522
 Red. masses --      4.2928                 4.1241                 3.4590
 Frc consts  --      0.0005                 0.0010                 0.0015
 IR Inten    --      0.7201                 0.4378                 1.6350

                      4                      5                      6
                      A                      A                      A
 Frequencies --     34.2338                36.3950                50.7956
 Red. masses --      3.1476                 3.5268                 3.7802
 Frc consts  --      0.0022                 0.0028                 0.0057
 IR Inten    --      1.4931                 2.2789                 1.4251

                      7                      8                      9
                      A                      A                      A
 Frequencies --     57.0782                92.3147                99.2993
 Red. masses --      4.2749                 2.5293                 2.8826
 Frc consts  --      0.0082                 0.0127                 0.0167
 IR Inten    --      1.9110                 2.5067                 0.7915

                     10                     11                     12
                      A                      A                      A
 Frequencies --    122.0381               135.8658               195.4854
 Red. masses --      3.3279                 2.7623                 2.4507
 Frc consts  --      0.0292                 0.0300                 0.0552
 IR Inten    --      3.3438                11.6589                31.6545

                     13                     14                     15
                      A                      A                      A
 Frequencies --    225.3923               238.1306               247.2569
 Red. masses --      2.6671                 2.4681                 2.1257
 Frc consts  --      0.0798                 0.0825                 0.0766
 IR Inten    --      3.0902                 9.5421                 6.7338

                     16                     17                     18
                      A                      A                      A
 Frequencies --    269.9168               286.4412               288.8842
 Red. masses --      1.2249                 2.4953                 4.1459
 Frc consts  --      0.0526                 0.1206                 0.2039
 IR Inten    --     49.1197                 5.6213                31.9963

                     19                     20                     21
                      A                      A                      A
 Frequencies --    306.4491               317.3146               348.1658
 Red. masses --      1.1490                 2.5504                 2.1371
 Frc consts  --      0.0636                 0.1513                 0.1526
 IR Inten    --     69.3533                 2.4632                11.5872

                     22                     23                     24
                      A                      A                      A
 Frequencies --    374.8413               431.7538               471.6384
 Red. masses --      2.5311                 2.6283                 3.0988
 Frc consts  --      0.2095                 0.2887                 0.4061
 IR Inten    --      4.5388                 0.7894                14.3981

                     25                     26                     27
                      A                      A                      A
 Frequencies --    543.4300               564.0127               608.3859
 Red. masses --      2.5725                 2.6499                 2.8047
 Frc consts  --      0.4476                 0.4967                 0.6116
 IR Inten    --      4.0296                 5.0029                 1.9895

                     28                     29                     30
                      A                      A                      A
 Frequencies --    759.3027               773.7687               792.4369
 Red. masses --      1.2577                 1.4578                 1.1663
 Frc consts  --      0.4272                 0.5142                 0.4315
 IR Inten    --      0.7542                 1.8290                 7.2355

                     31                     32                     33
                      A                      A                      A
 Frequencies --    845.2279               860.0279               863.3288
 Red. masses --      2.5947                 2.1046                 2.0870
 Frc consts  --      1.0922                 0.9171                 0.9165
 IR Inten    --      2.0279                 0.8265                69.5155

                     34                     35                     36
                      A                      A                      A
 Frequencies --    874.1513               892.2071               901.6965
 Red. masses --      1.8043                 1.8237                 1.7851
 Frc consts  --      0.8123                 0.8553                 0.8551
 IR Inten    --    123.1907                22.7750                95.2153

                     37                     38                     39
                      A                      A                      A
 Frequencies --    940.5868               968.5527              1003.6131
 Red. masses --      1.5203                 1.8426                 1.7465
 Frc consts  --      0.7925                 1.0184                 1.0364
 IR Inten    --    187.9975                11.6950                11.7156

                     40                     41                     42
                      A                      A                      A
 Frequencies --   1013.6227              1037.0494              1044.4742
 Red. masses --      1.6804                 3.3198                 3.4389
 Frc consts  --      1.0172                 2.1036                 2.2104
 IR Inten    --     25.4955                29.1653                23.7913

                     43                     44                     45
                      A                      A                      A
 Frequencies --   1050.4866              1054.7298              1078.5381
 Red. masses --      2.1285                 2.0057                 2.5649
 Frc consts  --      1.3839                 1.3146                 1.7579
 IR Inten    --      8.7039                13.7888                23.7903

                     46                     47                     48
                      A                      A                      A
 Frequencies --   1094.8997              1110.2212              1125.6844
 Red. masses --      1.9973                 2.5126                 3.7451
 Frc consts  --      1.4107                 1.8247                 2.7960
 IR Inten    --     80.6594               155.2825               219.6364

                     49                     50                     51
                      A                      A                      A
 Frequencies --   1131.3848              1136.2759              1148.0265
 Red. masses --      2.6364                 2.9407                 2.9002
 Frc consts  --      1.9883                 2.2370                 2.2521
 IR Inten    --    193.2823                40.5844               139.4723

                     52                     53                     54
                      A                      A                      A
 Frequencies --   1154.3576              1175.7378              1192.8273
 Red. masses --      3.4741                 1.6748                 1.3665
 Frc consts  --      2.7275                 1.3640                 1.1455
 IR Inten    --     61.7826                 4.6920                 1.9296

                     55                     56                     57
                      A                      A                      A
 Frequencies --   1212.1889              1245.2096              1268.9725
 Red. masses --      1.9199                 1.1687                 1.1880
 Frc consts  --      1.6622                 1.0676                 1.1272
 IR Inten    --      6.8579                14.4012                 1.3409

                     58                     59                     60
                      A                      A                      A
 Frequencies --   1274.9776              1291.5476              1295.8195
 Red. masses --      1.1779                 1.2022                 1.1967
 Frc consts  --      1.1281                 1.1815                 1.1839
 IR Inten    --     15.4992                50.0191                14.9868

                     61                     62                     63
                      A                      A                      A
 Frequencies --   1322.2045              1327.3659              1336.7356
 Red. masses --      1.1742                 1.1555                 1.1170
 Frc consts  --      1.2095                 1.1995                 1.1759
 IR Inten    --      0.4357                43.5973                 4.6106

                     64                     65                     66
                      A                      A                      A
 Frequencies --   1345.4193              1356.7820              1364.5990
 Red. masses --      1.2331                 1.1378                 1.2272
 Frc consts  --      1.3151                 1.2341                 1.3464
 IR Inten    --     15.8710                 7.9142                 8.7994

                     67                     68                     69
                      A                      A                      A
 Frequencies --   1391.2494              1393.6228              1409.1089
 Red. masses --      1.2911                 1.1800                 1.3608
 Frc consts  --      1.4724                 1.3503                 1.5920
 IR Inten    --     29.0027                 1.3711                20.4821

                     70                     71                     72
                      A                      A                      A
 Frequencies --   1411.8141              1422.4276              1425.5882
 Red. masses --      1.4649                 1.4160                 1.3255
 Frc consts  --      1.7203                 1.6880                 1.5872
 IR Inten    --      4.1109                 6.1467                12.5606

                     73                     74                     75
                      A                      A                      A
 Frequencies --   1433.9834              1442.5224              1445.4477
 Red. masses --      1.3893                 1.3721                 1.3592
 Frc consts  --      1.6832                 1.6822                 1.6732
 IR Inten    --     19.1612                11.8457                 2.8631

                     76                     77                     78
                      A                      A                      A
 Frequencies --   1474.4053              1478.4715              1487.1363
 Red. masses --      1.1010                 1.0907                 1.0960
 Frc consts  --      1.4101                 1.4046                 1.4281
 IR Inten    --      7.2374                 2.9352                 6.7698

                     79                     80                     81
                      A                      A                      A
 Frequencies --   1498.4024              1508.4881              1512.7734
 Red. masses --      1.0871                 1.0909                 1.0870
 Frc consts  --      1.4381                 1.4626                 1.4656
 IR Inten    --      0.5049                 1.2598                 5.1787

                     82                     83                     84
                      A                      A                      A
 Frequencies --   1513.2139              1523.3812              1529.7749
 Red. masses --      1.0849                 1.0930                 1.0885
 Frc consts  --      1.4637                 1.4945                 1.5009
 IR Inten    --      6.7618                 9.8751                 8.5350

                     85                     86                     87
                      A                      A                      A
 Frequencies --   1536.6236              1660.9327              1661.9454
 Red. masses --      1.0874                 1.0872                 1.0853
 Frc consts  --      1.5128                 1.7672                 1.7662
 IR Inten    --      8.6348                31.4967                42.7129

                     88                     89                     90
                      A                      A                      A
 Frequencies --   2981.0171              2984.2042              2991.7664
 Red. masses --      1.0599                 1.0583                 1.0578
 Frc consts  --      5.5492                 5.5530                 5.5786
 IR Inten    --     68.4532                54.6466                34.7842

                     91                     92                     93
                      A                      A                      A
 Frequencies --   2996.2676              3004.3130              3008.6386
 Red. masses --      1.0694                 1.0685                 1.0692
 Frc consts  --      5.6568                 5.6820                 5.7021
 IR Inten    --     72.1915               116.6351                29.2247

                     94                     95                     96
                      A                      A                      A
 Frequencies --   3014.9291              3019.8630              3020.9329
 Red. masses --      1.0649                 1.0870                 1.0947
 Frc consts  --      5.7030                 5.8408                 5.8862
 IR Inten    --    154.2947                47.8279                43.2849

                     97                     98                     99
                      A                      A                      A
 Frequencies --   3029.8578              3032.0134              3036.1478
 Red. masses --      1.1047                 1.0700                 1.0694
 Frc consts  --      5.9753                 5.7958                 5.8079
 IR Inten    --     84.8852                 9.8140               136.9693

                    100                    101                    102
                      A                      A                      A
 Frequencies --   3044.0131              3068.0510              3071.1249
 Red. masses --      1.0655                 1.0999                 1.0922
 Frc consts  --      5.8172                 6.1002                 6.0696
 IR Inten    --     62.0958                29.7745                77.2889

                    103                    104                    105
                      A                      A                      A
 Frequencies --   3080.6590              3087.5340              3090.1080
 Red. masses --      1.0953                 1.1038                 1.0971
 Frc consts  --      6.1244                 6.1995                 6.1723
 IR Inten    --      1.2388                83.0712                49.8996

                    106                    107                    108
                      A                      A                      A
 Frequencies --   3094.5976              3100.2793              3470.1257
 Red. masses --      1.1021                 1.1017                 1.0502
 Frc consts  --      6.2186                 6.2391                 7.4509
 IR Inten    --     91.4513               109.9075                 1.4588

                    109                    110                    111
                      A                      A                      A
 Frequencies --   3485.3168              3547.2243              3559.1680
 Red. masses --      1.0511                 1.0915                 1.0912
 Frc consts  --      7.5225                 8.0921                 8.1439
 IR Inten    --      0.8046                 0.1563                 0.0040

 - Thermochemistry -
 -------------------
 Temperature   298.150 Kelvin.  Pressure   1.00000 Atm.
 Atom     1 has atomic number  7 and mass  14.00307

 Molecular mass:   220.17869 amu.
 Principal axes and moments of inertia in atomic units:
                           1         2         3
     Eigenvalues --   708.13413********************
           X            1.00000   0.00163   0.00140
           Y           -0.00164   0.99998   0.00627
           Z           -0.00139  -0.00627   0.99998
 This molecule is an asymmetric top.
 Rotational symmetry number  1.
 Warning -- assumption of classical behavior for rotation
           may cause significant error
 Rotational temperatures (Kelvin)      0.12231     0.00546     0.00538
 Rotational constants (GHZ):           2.54859     0.11384     0.11201
 Zero-point vibrational energy     927416.5 (Joules/Mol)
                                  221.65786 (Kcal/Mol)
 Warning -- explicit consideration of  27 degrees of freedom as
           vibrations may cause significant error
 Vibrational temperatures:     20.42    29.43    39.21    49.25    52.36
          (Kelvin)             73.08    82.12   132.82   142.87   175.59
                              195.48   281.26   324.29   342.62   355.75
                              388.35   412.12   415.64   440.91   456.54
                              500.93   539.31   621.20   678.58   781.87
                              811.49   875.33  1092.47  1113.28  1140.14
                             1216.09  1237.39  1242.14  1257.71  1283.69
                             1297.34  1353.29  1393.53  1443.98  1458.38
                             1492.08  1502.77  1511.42  1517.52  1551.78
                             1575.32  1597.36  1619.61  1627.81  1634.85
                             1651.75  1660.86  1691.62  1716.21  1744.07
                             1791.58  1825.77  1834.41  1858.25  1864.40
                             1902.36  1909.78  1923.26  1935.76  1952.11
                             1963.35  2001.70  2005.11  2027.39  2031.29
                             2046.56  2051.10  2063.18  2075.47  2079.68
                             2121.34  2127.19  2139.66  2155.87  2170.38
                             2176.54  2177.18  2191.81  2201.00  2210.86
                             2389.71  2391.17  4289.02  4293.60  4304.48
                             4310.96  4322.54  4328.76  4337.81  4344.91
                             4346.45  4359.29  4362.39  4368.34  4379.66
                             4414.24  4418.66  4432.38  4442.27  4445.98
                             4452.44  4460.61  4992.74  5014.59  5103.66
                             5120.85

 Zero-point correction=                           0.353234 (Hartree/Particle)
 Thermal correction to Energy=                    0.372341
 Thermal correction to Enthalpy=                  0.373285
 Thermal correction to Gibbs Free Energy=         0.300747
 Sum of electronic and zero-point Energies=           -730.326758
 Sum of electronic and thermal Energies=              -730.307651
 Sum of electronic and thermal Enthalpies=            -730.306707
 Sum of electronic and thermal Free Energies=         -730.379245

                     E (Thermal)             CV                S
                      KCal/Mol        Cal/Mol-Kelvin    Cal/Mol-Kelvin
 Total                  233.648             66.541            152.670
 Electronic               0.000              0.000              0.000
 Translational            0.889              2.981             42.071
 Rotational               0.889              2.981             33.558
 Vibrational            231.870             60.580             77.041
 Vibration     1          0.593              1.986              7.315
 Vibration     2          0.593              1.986              6.589
 Vibration     3          0.593              1.984              6.020
 Vibration     4          0.594              1.983              5.568
 Vibration     5          0.594              1.982              5.446
 Vibration     6          0.595              1.977              4.786
 Vibration     7          0.596              1.975              4.556
 Vibration     8          0.602              1.955              3.610
 Vibration     9          0.604              1.950              3.468
 Vibration    10          0.610              1.931              3.068
 Vibration    11          0.614              1.918              2.861
 Vibration    12          0.636              1.846              2.175
 Vibration    13          0.650              1.802              1.915
 Vibration    14          0.656              1.782              1.817
 Vibration    15          0.661              1.767              1.750
 Vibration    16          0.674              1.729              1.597
 Vibration    17          0.684              1.699              1.495
 Vibration    18          0.685              1.694              1.480
 Vibration    19          0.697              1.661              1.381
 Vibration    20          0.704              1.641              1.324
 Vibration    21          0.726              1.579              1.174
 Vibration    22          0.746              1.524              1.060
 Vibration    23          0.793              1.401              0.853
 Vibration    24          0.829              1.313              0.733
 Vibration    25          0.899              1.154              0.558
 Vibration    26          0.920              1.109              0.516
 Vibration    27          0.967              1.014              0.435

 Optimization completed on the basis of negligible forces.
    -- Stationary point found.
 Normal termination of Gaussian 16 at Thu Jul 18 04:06:12 2024.
 Gaussian 16:  ES64L-G16RevA.03 25-Dec-2016

 ----------------------------------------------------------------------
 # TD(NStates=10, Root=1) B3LYP/6-31G** SCRF=(Solvent=water) volume pop
 =NPA density=current Geom=AllCheck Guess=Read
 ----------------------------------------------------------------------

 Structure from the checkpoint file:  "JCEZOHLWDIONSP-UHFFFAOYSA-N_conf_1_2.chk"
 ----------------------------------
 JCEZOHLWDIONSP-UHFFFAOYSA-N_conf_1
 ----------------------------------
 Charge =  0 Multiplicity = 1

                         Standard orientation:
 ---------------------------------------------------------------------
 Center     Atomic      Atomic             Coordinates (Angstroms)
 Number     Number       Type             X           Y           Z
 ---------------------------------------------------------------------
      1          7           0        6.852645    0.167707    0.077627
      2          6           0        6.013696   -0.914940   -0.465369
      3          6           0        4.902235   -1.312124    0.512702
      4          6           0        3.927991   -0.188945    0.851863
      5          8           0        3.314684    0.267531   -0.351090
      6          6           0        2.465890    1.394734   -0.189092
      7          6           0        1.088063    1.065547    0.368593
      8          8           0        0.406856    0.237937   -0.567494
      9          6           0       -0.833238   -0.283304   -0.105724
     10          6           0       -1.975764    0.734537   -0.232212
     11          8           0       -3.214353    0.203910    0.221524
     12          6           0       -3.911431   -0.588114   -0.741237
     13          6           0       -5.273942   -0.958897   -0.168585
     14          6           0       -6.187420    0.249971    0.086955
     15          7           0       -7.512680   -0.061390    0.640176
     16          1           0        7.657847    0.293585   -0.532787
     17          1           0        6.340365    1.045744    0.013588
     18          1           0        5.561304   -0.669184   -1.438196
     19          1           0        6.657899   -1.786385   -0.627929
     20          1           0        5.350557   -1.659909    1.451211
     21          1           0        4.340217   -2.153260    0.088792
     22          1           0        4.454565    0.645540    1.342516
     23          1           0        3.175870   -0.557407    1.564732
     24          1           0        2.346650    1.831639   -1.186196
     25          1           0        2.937626    2.149321    0.459186
     26          1           0        1.166737    0.554005    1.339787
     27          1           0        0.553973    2.012263    0.540712
     28          1           0       -1.042228   -1.161128   -0.725287
     29          1           0       -0.756071   -0.619380    0.938890
     30          1           0       -1.770898    1.609710    0.392916
     31          1           0       -2.049049    1.076242   -1.275194
     32          1           0       -4.030026   -0.015173   -1.675410
     33          1           0       -3.346326   -1.498901   -0.985959
     34          1           0       -5.763520   -1.645774   -0.871477
     35          1           0       -5.127802   -1.513731    0.767625
     36          1           0       -5.685633    0.941517    0.771666
     37          1           0       -6.333184    0.795695   -0.854702
     38          1           0       -7.392711   -0.559003    1.521678
     39          1           0       -7.979895   -0.726068    0.024321
 ---------------------------------------------------------------------

 SCF Done:  E(RB3LYP) =  -730.679992025     A.U. after    1 cycles

 Excitation energies and oscillator strengths:

 Excited State   1:      Singlet-A      7.2618 eV  170.73 nm  f=0.0118  <S**2>=0.000
      60 -> 62         0.60854
      60 -> 63         0.29659
      60 -> 65        -0.16372
 This state for optimization and/or second-order correction.
 Total Energy, E(TD-HF/TD-DFT) =  -730.413124353
 Copying the excited state density for this state as the 1-particle RhoCI density.

 Excited State   2:      Singlet-A      7.4800 eV  165.75 nm  f=0.0038  <S**2>=0.000
      59 -> 62         0.15999
      59 -> 64         0.23181
      61 -> 62        -0.25551
      61 -> 63         0.35608
      61 -> 64         0.45314

 Excited State   3:      Singlet-A      7.5212 eV  164.85 nm  f=0.0415  <S**2>=0.000
      59 -> 62         0.40364
      59 -> 63        -0.28033
      61 -> 62        -0.31025
      61 -> 64        -0.36563

 Excited State   4:      Singlet-A      7.8197 eV  158.55 nm  f=0.0339  <S**2>=0.000
      58 -> 62         0.68628

 Excited State   5:      Singlet-A      7.9156 eV  156.63 nm  f=0.0020  <S**2>=0.000
      57 -> 62         0.10724
      59 -> 62         0.39219
      59 -> 65         0.18390
      61 -> 62         0.23662
      61 -> 63        -0.32669
      61 -> 64         0.26739
      61 -> 65        -0.22548

 Excited State   6:      Singlet-A      7.9936 eV  155.11 nm  f=0.0011  <S**2>=0.000
      59 -> 62         0.11667
      59 -> 63        -0.32005
      59 -> 64         0.22034
      59 -> 65        -0.20380
      61 -> 62         0.45906
      61 -> 63         0.17125
      61 -> 65         0.18683

 Excited State   7:      Singlet-A      8.2072 eV  151.07 nm  f=0.0037  <S**2>=0.000
      60 -> 62        -0.34954
      60 -> 63         0.48652
      60 -> 65        -0.27772
      60 -> 66        -0.15964

 Excited State   8:      Singlet-A      8.2533 eV  150.22 nm  f=0.0079  <S**2>=0.000
      59 -> 63         0.15436
      59 -> 64        -0.26112
      59 -> 65         0.34680
      61 -> 62         0.25730
      61 -> 63         0.41699
      61 -> 64        -0.10300

 Excited State   9:      Singlet-A      8.3107 eV  149.19 nm  f=0.0131  <S**2>=0.000
      57 -> 62         0.12976
      59 -> 62         0.30890
      59 -> 63         0.40520
      59 -> 65        -0.12907
      59 -> 67         0.11135
      61 -> 64        -0.11304
      61 -> 65         0.36828
      61 -> 67        -0.13943

 Excited State  10:      Singlet-A      8.4421 eV  146.86 nm  f=0.0055  <S**2>=0.000
      57 -> 62         0.11047
      57 -> 63        -0.12034
      59 -> 63         0.17988
      59 -> 64         0.52324
      59 -> 65         0.19287
      61 -> 64        -0.22068
      61 -> 65        -0.19562

 The electronic state is 1-A.
 Alpha  occ. eigenvalues --  -19.15177 -19.15033 -19.14824 -14.31002 -14.30896
 Alpha  occ. eigenvalues --  -10.23154 -10.23106 -10.22935 -10.22923 -10.22870
 Alpha  occ. eigenvalues --  -10.22721 -10.20125 -10.20117 -10.17852 -10.17849
 Alpha  occ. eigenvalues --   -1.03857  -1.02908  -1.02114  -0.87473  -0.87361
 Alpha  occ. eigenvalues --   -0.78121  -0.76956  -0.74490  -0.70825  -0.66662
 Alpha  occ. eigenvalues --   -0.65301  -0.61926  -0.59760  -0.58177  -0.56611
 Alpha  occ. eigenvalues --   -0.50986  -0.49922  -0.49613  -0.49440  -0.48144
 Alpha  occ. eigenvalues --   -0.47853  -0.46613  -0.45713  -0.44652  -0.44565
 Alpha  occ. eigenvalues --   -0.43108  -0.42270  -0.40891  -0.40080  -0.39125
 Alpha  occ. eigenvalues --   -0.38456  -0.37511  -0.36995  -0.36194  -0.34258
 Alpha  occ. eigenvalues --   -0.34044  -0.33987  -0.33455  -0.32877  -0.31325
 Alpha  occ. eigenvalues --   -0.30592  -0.27687  -0.25524  -0.24387  -0.23672
 Alpha  occ. eigenvalues --   -0.23368
 Alpha virt. eigenvalues --    0.07068   0.08653   0.09052   0.09662   0.11233
 Alpha virt. eigenvalues --    0.11594   0.12290   0.12660   0.12854   0.13419
 Alpha virt. eigenvalues --    0.13932   0.14832   0.15182   0.16011   0.16072

 Mulliken charges:
               1
     1  N   -0.081314
     2  C   -0.114111
     3  C   -0.192677
     4  C    0.107701
     5  O   -0.496881
     6  C    0.043431
     7  C    0.057806
     8  O   -0.510213
     9  C    0.043253
    10  C    0.043981
    11  O   -0.513966
    12  C    0.065044
    13  C   -0.208236
    14  C   -0.053636
    15  N   -0.638947
    16  H    0.092248
    17  H    0.016402
    18  H    0.167588
    19  H    0.107359
    20  H    0.110583
    21  H    0.110983
    22  H   -0.015044
    23  H    0.036932
    24  H    0.099133
    25  H    0.059313
    26  H    0.083816
    27  H    0.080700
    28  H    0.106257
    29  H    0.094306
    30  H    0.106637
    31  H    0.095861
    32  H    0.091073
    33  H    0.093795
    34  H    0.101213
    35  H    0.101822
    36  H    0.109679
    37  H    0.099996
    38  H    0.249447
    39  H    0.248670
 Sum of Mulliken charges =  -0.00000

 Dipole moment (field-independent basis, Debye):
    X=              4.0254    Y=             -2.7797    Z=             -0.2918  Tot=              4.9006
 Quadrupole moment (field-independent basis, Debye-Ang):
   XX=            -77.1119   YY=            -92.4573   ZZ=            -94.1882
   XY=              8.2071   XZ=              6.4183   YZ=             -0.5997

 Summary of Natural Population Analysis:

                                       Natural Population
                Natural  -----------------------------------------------
    Atom  No    Charge         Core      Valence    Rydberg      Total
 -----------------------------------------------------------------------
      N    1   -0.36822      1.99934     5.34705    0.02183     7.36822
      C    2   -0.36329      1.99928     4.34479    0.01922     6.36329
      C    3   -0.49212      1.99930     4.48048    0.01235     6.49212
      C    4   -0.14201      1.99926     4.11852    0.02422     6.14201
      O    5   -0.61119      1.99979     6.59756    0.01384     8.61119
      C    6   -0.14394      1.99926     4.12062    0.02406     6.14394
      C    7   -0.14085      1.99925     4.12475    0.01685     6.14085
      O    8   -0.60138      1.99980     6.58836    0.01322     8.60138
      C    9   -0.13758      1.99929     4.11844    0.01985     6.13758
      C   10   -0.13605      1.99929     4.11704    0.01972     6.13605
      O   11   -0.60452      1.99979     6.59226    0.01247     8.60452
      C   12   -0.10778      1.99926     4.09211    0.01640     6.10778
      C   13   -0.50613      1.99931     4.49503    0.01180     6.50613
      C   14   -0.26777      1.99936     4.25259    0.01582     6.26777
      N   15   -0.92397      1.99971     5.90915    0.01511     7.92397
      H   16    0.25305      0.00000     0.68162    0.06533     0.74695
      H   17    0.19833      0.00000     0.71856    0.08311     0.80167
      H   18    0.29211      0.00000     0.69123    0.01666     0.70789
      H   19    0.22792      0.00000     0.75322    0.01886     0.77208
      H   20    0.24636      0.00000     0.74689    0.00675     0.75364
      H   21    0.24688      0.00000     0.74705    0.00607     0.75312
      H   22    0.13238      0.00000     0.83480    0.03282     0.86762
      H   23    0.16882      0.00000     0.81634    0.01484     0.83118
      H   24    0.22734      0.00000     0.76958    0.00308     0.77266
      H   25    0.18778      0.00000     0.79965    0.01257     0.81222
      H   26    0.19873      0.00000     0.79481    0.00646     0.80127
      H   27    0.19902      0.00000     0.79591    0.00507     0.80098
      H   28    0.22342      0.00000     0.77497    0.00162     0.77658
      H   29    0.20378      0.00000     0.79266    0.00357     0.79622
      H   30    0.22352      0.00000     0.77444    0.00204     0.77648
      H   31    0.20528      0.00000     0.79145    0.00327     0.79472
      H   32    0.20341      0.00000     0.79362    0.00297     0.79659
      H   33    0.21012      0.00000     0.78732    0.00256     0.78988
      H   34    0.24194      0.00000     0.75603    0.00203     0.75806
      H   35    0.23584      0.00000     0.76134    0.00281     0.76416
      H   36    0.23039      0.00000     0.76700    0.00261     0.76961
      H   37    0.22231      0.00000     0.77554    0.00215     0.77769
      H   38    0.38373      0.00000     0.61336    0.00291     0.61627
      H   39    0.38293      0.00000     0.61414    0.00293     0.61707
 =======================================================================
   * Total *   -0.00142     29.99129    91.45026    0.55986   122.00142

 Normal termination of Gaussian 16 at Thu Jul 18 04:25:49 2024.
