 Gaussian 16, Revision A.03,

 -------------------------------------------------------
 # opt=CalcFc B3LYP/6-31G** SCRF=(Solvent=water) scf=xqc
 -------------------------------------------------------

 ----------------------------------
 JCEZOHLWDIONSP-UHFFFAOYSA-N_conf_4
 ----------------------------------
 Symbolic Z-matrix:
 Charge =  0 Multiplicity = 1

 SCF Done:  E(RB3LYP) =  -730.674036770     A.U. after   11 cycles
 SCF Done:  E(RB3LYP) =  -730.677248432     A.U. after   12 cycles
 SCF Done:  E(RB3LYP) =  -730.676535877     A.U. after   12 cycles
 SCF Done:  E(RB3LYP) =  -730.678448542     A.U. after   10 cycles
 SCF Done:  E(RB3LYP) =  -730.678475076     A.U. after   10 cycles
 SCF Done:  E(RB3LYP) =  -730.678502056     A.U. after    9 cycles
 SCF Done:  E(RB3LYP) =  -730.678505471     A.U. after    7 cycles
 SCF Done:  E(RB3LYP) =  -730.678508625     A.U. after    7 cycles
 SCF Done:  E(RB3LYP) =  -730.678512120     A.U. after    7 cycles
 SCF Done:  E(RB3LYP) =  -730.678515123     A.U. after    7 cycles
 SCF Done:  E(RB3LYP) =  -730.678515345     A.U. after    7 cycles
 SCF Done:  E(RB3LYP) =  -730.678515150     A.U. after    7 cycles
 SCF Done:  E(RB3LYP) =  -730.678515208     A.U. after    6 cycles
 Optimization completed on the basis of negligible forces.
    -- Stationary point found.
 Normal termination of Gaussian 16 at Thu Jul 18 04:01:17 2024.

 ----------------------------------------------------------------------
 # freq B3LYP/6-31G** SCRF=(Solvent=water) volume NMR pop=NPA density=c
 urrent Geom=AllCheck Guess=Read
 ----------------------------------------------------------------------

 Structure from the checkpoint file:  "JCEZOHLWDIONSP-UHFFFAOYSA-N_conf_4_1.chk"
 ----------------------------------
 JCEZOHLWDIONSP-UHFFFAOYSA-N_conf_4
 ----------------------------------
 Charge =  0 Multiplicity = 1

 SCF Done:  E(RB3LYP) =  -730.678515208     A.U. after    1 cycles

      1  N    Isotropic =   234.1876   Anisotropy =    32.0916

      2  C    Isotropic =   150.6528   Anisotropy =    33.9615

      3  C    Isotropic =   159.4432   Anisotropy =    27.9624

      4  C    Isotropic =   122.6684   Anisotropy =    73.1823

      5  O    Isotropic =   292.9896   Anisotropy =    48.6626

      6  C    Isotropic =   122.9528   Anisotropy =    55.3826

      7  C    Isotropic =   121.1648   Anisotropy =    58.5561

      8  O    Isotropic =   300.4452   Anisotropy =    42.1437

      9  C    Isotropic =   122.9337   Anisotropy =    75.0222

     10  C    Isotropic =   126.7604   Anisotropy =    69.2059

     11  O    Isotropic =   311.1713   Anisotropy =    28.0396

     12  C    Isotropic =   125.5246   Anisotropy =    77.0443

     13  C    Isotropic =   161.9518   Anisotropy =    21.7486

     14  C    Isotropic =   153.3536   Anisotropy =    37.4897

     15  N    Isotropic =   238.3192   Anisotropy =    25.1181

     16  H    Isotropic =    31.0361   Anisotropy =    15.6155

     17  H    Isotropic =    31.5996   Anisotropy =    12.1815

     18  H    Isotropic =    29.0077   Anisotropy =     6.5236

     19  H    Isotropic =    29.3868   Anisotropy =     5.8856

     20  H    Isotropic =    30.3467   Anisotropy =     5.2393

     21  H    Isotropic =    29.8669   Anisotropy =     4.8770

     22  H    Isotropic =    27.9893   Anisotropy =     6.4505

     23  H    Isotropic =    28.4598   Anisotropy =     5.2879

     24  H    Isotropic =    28.4964   Anisotropy =     5.6933

     25  H    Isotropic =    27.9604   Anisotropy =     5.1776

     26  H    Isotropic =    27.9922   Anisotropy =     5.5005

     27  H    Isotropic =    28.3080   Anisotropy =     5.6079

     28  H    Isotropic =    27.8855   Anisotropy =     6.1123

     29  H    Isotropic =    28.2964   Anisotropy =     4.6140

     30  H    Isotropic =    28.3445   Anisotropy =     7.4677

     31  H    Isotropic =    28.0594   Anisotropy =     6.4779

     32  H    Isotropic =    28.3043   Anisotropy =     6.8815

     33  H    Isotropic =    27.7160   Anisotropy =     6.3872

     34  H    Isotropic =    29.7288   Anisotropy =     6.2749

     35  H    Isotropic =    30.6066   Anisotropy =     8.8657

     36  H    Isotropic =    29.3579   Anisotropy =     7.8716

     37  H    Isotropic =    28.4951   Anisotropy =     6.8650

     38  H    Isotropic =    31.0625   Anisotropy =    15.6863

     39  H    Isotropic =    31.1825   Anisotropy =    11.3697

  Exact polarizability: 191.467   1.193 158.142   2.323   2.105 151.083
 Approx polarizability: 184.123   0.501 172.313   3.160   2.620 169.234

                      1                      2                      3
                      A                      A                      A
 Frequencies --     12.6632                18.8213                22.2471
 Red. masses --      4.6556                 4.2430                 2.5174
 Frc consts  --      0.0004                 0.0009                 0.0007
 IR Inten    --      0.2224                 0.6875                 2.5153

                      4                      5                      6
                      A                      A                      A
 Frequencies --     30.5234                40.0268                62.6979
 Red. masses --      4.5234                 3.6671                 2.9824
 Frc consts  --      0.0025                 0.0035                 0.0069
 IR Inten    --      1.5464                 0.0776                 5.0434

                      7                      8                      9
                      A                      A                      A
 Frequencies --     71.6523                85.6766               100.8258
 Red. masses --      2.0436                 3.5471                 3.6305
 Frc consts  --      0.0062                 0.0153                 0.0217
 IR Inten    --      4.5558                 0.6568                 0.6125

                     10                     11                     12
                      A                      A                      A
 Frequencies --    118.3270               132.5794               161.3461
 Red. masses --      2.5536                 2.6233                 3.6892
 Frc consts  --      0.0211                 0.0272                 0.0566
 IR Inten    --      1.3097                 2.3679                 4.6896

                     13                     14                     15
                      A                      A                      A
 Frequencies --    204.0939               221.3807               242.4932
 Red. masses --      3.5447                 2.1590                 2.6430
 Frc consts  --      0.0870                 0.0623                 0.0916
 IR Inten    --      3.9656                57.1073                20.0708

                     16                     17                     18
                      A                      A                      A
 Frequencies --    255.6859               269.2743               288.3918
 Red. masses --      1.8054                 1.1988                 1.3498
 Frc consts  --      0.0695                 0.0512                 0.0661
 IR Inten    --      3.6645                70.3491                26.6744

                     19                     20                     21
                      A                      A                      A
 Frequencies --    304.4286               321.5860               363.0599
 Red. masses --      2.8865                 2.2906                 3.7713
 Frc consts  --      0.1576                 0.1396                 0.2929
 IR Inten    --      0.1759                12.6574                 3.9447

                     22                     23                     24
                      A                      A                      A
 Frequencies --    404.3440               449.6580               459.1888
 Red. masses --      2.7080                 3.0551                 2.2163
 Frc consts  --      0.2609                 0.3639                 0.2753
 IR Inten    --     14.8909                 9.2797                18.8120

                     25                     26                     27
                      A                      A                      A
 Frequencies --    507.0825               567.3556               609.9646
 Red. masses --      4.4438                 2.9494                 2.5643
 Frc consts  --      0.6732                 0.5594                 0.5621
 IR Inten    --     14.6900                 8.7768                 6.8229

                     28                     29                     30
                      A                      A                      A
 Frequencies --    769.3900               772.4319               817.4628
 Red. masses --      1.0861                 1.4001                 1.1907
 Frc consts  --      0.3788                 0.4922                 0.4688
 IR Inten    --      5.8907                 3.1506                 1.9882

                     31                     32                     33
                      A                      A                      A
 Frequencies --    832.5885               850.7876               870.9791
 Red. masses --      2.7390                 1.5324                 2.1221
 Frc consts  --      1.1187                 0.6535                 0.9485
 IR Inten    --      0.0786                28.4329                41.9597

                     34                     35                     36
                      A                      A                      A
 Frequencies --    877.4167               889.2730               923.1335
 Red. masses --      1.6511                 1.4373                 1.3442
 Frc consts  --      0.7489                 0.6697                 0.6749
 IR Inten    --     61.4544               179.3498               113.0252

                     37                     38                     39
                      A                      A                      A
 Frequencies --    945.9507               986.5149               990.4448
 Red. masses --      2.2435                 1.7801                 2.5411
 Frc consts  --      1.1828                 1.0207                 1.4687
 IR Inten    --     47.5683                 5.6284                 8.9463

                     40                     41                     42
                      A                      A                      A
 Frequencies --   1028.1682              1028.9683              1045.2281
 Red. masses --      2.5117                 2.2847                 2.8085
 Frc consts  --      1.5644                 1.4252                 1.8078
 IR Inten    --     19.5172                11.5524                16.4349

                     43                     44                     45
                      A                      A                      A
 Frequencies --   1058.4565              1066.9820              1085.2977
 Red. masses --      2.8797                 2.9577                 2.6217
 Frc consts  --      1.9008                 1.9839                 1.8194
 IR Inten    --     18.8365                21.5913                19.0084

                     46                     47                     48
                      A                      A                      A
 Frequencies --   1098.3172              1122.1218              1128.3566
 Red. masses --      1.8443                 1.9649                 4.1260
 Frc consts  --      1.3108                 1.4577                 3.0951
 IR Inten    --      6.4246                16.6792               411.5733

                     49                     50                     51
                      A                      A                      A
 Frequencies --   1128.6189              1143.0892              1150.6895
 Red. masses --      3.5563                 3.4649                 1.7176
 Frc consts  --      2.6690                 2.6675                 1.3400
 IR Inten    --    111.6035               216.8912                31.1295

                     52                     53                     54
                      A                      A                      A
 Frequencies --   1160.5420              1182.0145              1194.6015
 Red. masses --      4.0801                 1.5866                 1.5010
 Frc consts  --      3.2378                 1.3061                 1.2620
 IR Inten    --     86.0548                13.6111                 5.7457

                     55                     56                     57
                      A                      A                      A
 Frequencies --   1225.6906              1251.2771              1262.9339
 Red. masses --      1.5670                 1.1698                 1.3213
 Frc consts  --      1.3871                 1.0791                 1.2416
 IR Inten    --     16.9234                 9.3257                10.1511

                     58                     59                     60
                      A                      A                      A
 Frequencies --   1265.4470              1277.2040              1306.9164
 Red. masses --      1.3014                 1.2235                 1.0830
 Frc consts  --      1.2278                 1.1759                 1.0898
 IR Inten    --      3.8162                29.3477                 6.4194

                     61                     62                     63
                      A                      A                      A
 Frequencies --   1308.3158              1322.1097              1330.0946
 Red. masses --      1.1849                 1.1052                 1.0852
 Frc consts  --      1.1949                 1.1382                 1.1311
 IR Inten    --     24.8286                12.5746                 1.2182

                     64                     65                     66
                      A                      A                      A
 Frequencies --   1336.8699              1351.5569              1356.2653
 Red. masses --      1.2134                 1.2184                 1.1456
 Frc consts  --      1.2777                 1.3113                 1.2416
 IR Inten    --     18.9890                 3.5633                 4.9871

                     67                     68                     69
                      A                      A                      A
 Frequencies --   1365.7852              1392.5101              1408.5077
 Red. masses --      1.2558                 1.3462                 1.3621
 Frc consts  --      1.3802                 1.5380                 1.5922
 IR Inten    --     26.9701                 2.8321                 8.5028

                     70                     71                     72
                      A                      A                      A
 Frequencies --   1410.6523              1430.9254              1436.4453
 Red. masses --      1.2597                 1.3138                 1.3715
 Frc consts  --      1.4769                 1.5849                 1.6674
 IR Inten    --     53.9179                 6.0244                13.2307

                     73                     74                     75
                      A                      A                      A
 Frequencies --   1439.7198              1447.4930              1453.7656
 Red. masses --      1.4682                 1.4411                 1.4974
 Frc consts  --      1.7931                 1.7790                 1.8645
 IR Inten    --     29.9374                 6.5162                 3.6330

                     76                     77                     78
                      A                      A                      A
 Frequencies --   1481.1180              1493.8933              1503.3079
 Red. masses --      1.0936                 1.0879                 1.0794
 Frc consts  --      1.4134                 1.4305                 1.4373
 IR Inten    --      8.1964                 0.3473                 1.1296

                     79                     80                     81
                      A                      A                      A
 Frequencies --   1507.7613              1508.4032              1512.8315
 Red. masses --      1.0836                 1.0885                 1.0847
 Frc consts  --      1.4514                 1.4592                 1.4627
 IR Inten    --      8.9929                 2.5605                 6.8182

                     82                     83                     84
                      A                      A                      A
 Frequencies --   1516.8266              1521.4915              1529.6848
 Red. masses --      1.0946                 1.1004                 1.0942
 Frc consts  --      1.4838                 1.5009                 1.5085
 IR Inten    --     14.2954                 2.3034                 1.5948

                     85                     86                     87
                      A                      A                      A
 Frequencies --   1538.1101              1657.3200              1663.2087
 Red. masses --      1.0885                 1.0866                 1.0850
 Frc consts  --      1.5172                 1.7585                 1.7684
 IR Inten    --      4.2295                35.9299                42.9983

                     88                     89                     90
                      A                      A                      A
 Frequencies --   2958.2461              2985.2615              2987.6468
 Red. masses --      1.0720                 1.0708                 1.0599
 Frc consts  --      5.5271                 5.6225                 5.5739
 IR Inten    --    100.6389               110.6742                37.8283

                     91                     92                     93
                      A                      A                      A
 Frequencies --   2990.3649              2993.1758              2997.0891
 Red. masses --      1.0584                 1.0619                 1.0600
 Frc consts  --      5.5764                 5.6054                 5.6099
 IR Inten    --     81.0425                68.2938                31.5241

                     94                     95                     96
                      A                      A                      A
 Frequencies --   3001.5130              3011.5640              3028.4981
 Red. masses --      1.0682                 1.0679                 1.0928
 Frc consts  --      5.6699                 5.7065                 5.9054
 IR Inten    --    109.4315                67.5961                19.6688

                     97                     98                     99
                      A                      A                      A
 Frequencies --   3031.8023              3036.4097              3038.5981
 Red. masses --      1.0966                 1.0740                 1.1024
 Frc consts  --      5.9387                 5.8339                 5.9969
 IR Inten    --    110.3409               100.9328                82.6691

                    100                    101                    102
                      A                      A                      A
 Frequencies --   3042.5416              3050.5615              3069.0495
 Red. masses --      1.0679                 1.0863                 1.0942
 Frc consts  --      5.8244                 5.9559                 6.0722
 IR Inten    --     23.7486                61.9078                20.4002

                    103                    104                    105
                      A                      A                      A
 Frequencies --   3071.6302              3077.4240              3090.4317
 Red. masses --      1.0906                 1.1005                 1.1042
 Frc consts  --      6.0625                 6.1408                 6.2134
 IR Inten    --     63.6112                26.2655               128.7901

                    106                    107                    108
                      A                      A                      A
 Frequencies --   3092.1129              3093.2927              3475.9801
 Red. masses --      1.1001                 1.0990                 1.0510
 Frc consts  --      6.1972                 6.1955                 7.4820
 IR Inten    --     82.0711                98.1052                 1.5437

                    109                    110                    111
                      A                      A                      A
 Frequencies --   3485.7011              3553.7721              3559.9126
 Red. masses --      1.0510                 1.0913                 1.0912
 Frc consts  --      7.5239                 8.1200                 8.1479
 IR Inten    --      0.7447                 0.1446                 0.0372

 - Thermochemistry -
 -------------------
 Temperature   298.150 Kelvin.  Pressure   1.00000 Atm.
 Atom     1 has atomic number  7 and mass  14.00307

 Molecular mass:   220.17869 amu.
 Principal axes and moments of inertia in atomic units:
                           1         2         3
     Eigenvalues --   713.59098********************
           X            1.00000   0.00034   0.00068
           Y           -0.00035   0.99992   0.01243
           Z           -0.00068  -0.01243   0.99992
 This molecule is an asymmetric top.
 Rotational symmetry number  1.
 Warning -- assumption of classical behavior for rotation
           may cause significant error
 Rotational temperatures (Kelvin)      0.12138     0.00530     0.00526
 Rotational constants (GHZ):           2.52910     0.11041     0.10950
 Zero-point vibrational energy     927167.0 (Joules/Mol)
                                  221.59824 (Kcal/Mol)
 Warning -- explicit consideration of  27 degrees of freedom as
           vibrations may cause significant error
 Vibrational temperatures:     18.22    27.08    32.01    43.92    57.59
          (Kelvin)             90.21   103.09   123.27   145.07   170.25
                              190.75   232.14   293.65   318.52   348.89
                              367.87   387.43   414.93   438.00   462.69
                              522.36   581.76   646.96   660.67   729.58
                              816.30   877.60  1106.98  1111.36  1176.15
                             1197.91  1224.09  1253.14  1262.41  1279.47
                             1328.18  1361.01  1419.37  1425.03  1479.30
                             1480.46  1503.85  1522.88  1535.15  1561.50
                             1580.23  1614.48  1623.45  1623.83  1644.65
                             1655.59  1669.76  1700.66  1718.77  1763.50
                             1800.31  1817.08  1820.70  1837.61  1880.36
                             1882.37  1902.22  1913.71  1923.46  1944.59
                             1951.36  1965.06  2003.51  2026.53  2029.61
                             2058.78  2066.72  2071.44  2082.62  2091.64
                             2131.00  2149.38  2162.92  2169.33  2170.26
                             2176.63  2182.38  2189.09  2200.88  2213.00
                             2384.51  2392.99  4256.26  4295.13  4298.56
                             4302.47  4306.51  4312.14  4318.51  4332.97
                             4357.33  4362.09  4368.72  4371.86  4377.54
                             4389.08  4415.68  4419.39  4427.73  4446.44
                             4448.86  4450.56  5001.16  5015.15  5113.09
                             5121.92

 Zero-point correction=                           0.353139 (Hartree/Particle)
 Thermal correction to Energy=                    0.372344
 Thermal correction to Enthalpy=                  0.373288
 Thermal correction to Gibbs Free Energy=         0.300288
 Sum of electronic and zero-point Energies=           -730.325376
 Sum of electronic and thermal Energies=              -730.306171
 Sum of electronic and thermal Enthalpies=            -730.305227
 Sum of electronic and thermal Free Energies=         -730.378228

                     E (Thermal)             CV                S
                      KCal/Mol        Cal/Mol-Kelvin    Cal/Mol-Kelvin
 Total                  233.649             66.531            153.643
 Electronic               0.000              0.000              0.000
 Translational            0.889              2.981             42.071
 Rotational               0.889              2.981             33.619
 Vibrational            231.872             60.570             77.953
 Vibration     1          0.593              1.987              7.542
 Vibration     2          0.593              1.986              6.755
 Vibration     3          0.593              1.985              6.423
 Vibration     4          0.594              1.984              5.795
 Vibration     5          0.594              1.981              5.258
 Vibration     6          0.597              1.972              4.370
 Vibration     7          0.598              1.968              4.107
 Vibration     8          0.601              1.959              3.756
 Vibration     9          0.604              1.948              3.438
 Vibration    10          0.608              1.934              3.128
 Vibration    11          0.613              1.921              2.908
 Vibration    12          0.622              1.890              2.534
 Vibration    13          0.640              1.834              2.096
 Vibration    14          0.648              1.809              1.948
 Vibration    15          0.659              1.775              1.785
 Vibration    16          0.666              1.753              1.691
 Vibration    17          0.674              1.730              1.601
 Vibration    18          0.685              1.695              1.483
 Vibration    19          0.695              1.665              1.392
 Vibration    20          0.707              1.632              1.302
 Vibration    21          0.737              1.548              1.109
 Vibration    22          0.770              1.461              0.947
 Vibration    23          0.809              1.362              0.797
 Vibration    24          0.817              1.341              0.768
 Vibration    25          0.862              1.234              0.641
 Vibration    26          0.923              1.102              0.509
 Vibration    27          0.969              1.011              0.433

 Optimization completed.
    -- Stationary point found.
 Normal termination of Gaussian 16 at Thu Jul 18 04:20:17 2024.
 Gaussian 16:  ES64L-G16RevA.03 25-Dec-2016

 ----------------------------------------------------------------------
 # TD(NStates=10, Root=1) B3LYP/6-31G** SCRF=(Solvent=water) volume pop
 =NPA density=current Geom=AllCheck Guess=Read
 ----------------------------------------------------------------------

 Structure from the checkpoint file:  "JCEZOHLWDIONSP-UHFFFAOYSA-N_conf_4_2.chk"
 ----------------------------------
 JCEZOHLWDIONSP-UHFFFAOYSA-N_conf_4
 ----------------------------------
 Charge =  0 Multiplicity = 1

                         Standard orientation:
 ---------------------------------------------------------------------
 Center     Atomic      Atomic             Coordinates (Angstroms)
 Number     Number       Type             X           Y           Z
 ---------------------------------------------------------------------
      1          7           0        7.613448    0.480115    0.273783
      2          6           0        6.528731   -0.508333    0.382266
      3          6           0        5.202914    0.090631   -0.093081
      4          6           0        4.054387   -0.919253   -0.030189
      5          8           0        2.823179   -0.417922   -0.544545
      6          6           0        2.134997    0.459465    0.334247
      7          6           0        0.775194    0.781180   -0.250285
      8          8           0       -0.029340   -0.392488   -0.228755
      9          6           0       -1.274429   -0.265929   -0.899042
     10          6           0       -2.332597    0.435778   -0.046208
     11          8           0       -3.547464    0.394130   -0.780262
     12          6           0       -4.605244    1.173905   -0.222224
     13          6           0       -5.219882    0.579096    1.048536
     14          6           0       -5.669505   -0.878351    0.898588
     15          7           0       -6.675152   -1.028559   -0.167336
     16          1           0        8.484350    0.048493    0.578057
     17          1           0        7.441556    1.228492    0.944201
     18          1           0        6.399681   -0.907638    1.403160
     19          1           0        6.790216   -1.363494   -0.253816
     20          1           0        5.312998    0.446551   -1.124061
     21          1           0        4.965408    0.966288    0.525192
     22          1           0        4.295748   -1.791966   -0.647593
     23          1           0        3.913022   -1.275016    1.002874
     24          1           0        2.010637   -0.006604    1.324472
     25          1           0        2.682167    1.403162    0.476350
     26          1           0        0.324284    1.591068    0.341482
     27          1           0        0.892656    1.144578   -1.282664
     28          1           0       -1.616490   -1.282669   -1.118159
     29          1           0       -1.157075    0.264085   -1.855651
     30          1           0       -2.047510    1.479329    0.158527
     31          1           0       -2.417787   -0.082545    0.919591
     32          1           0       -4.253363    2.198266   -0.025690
     33          1           0       -5.364272    1.232056   -1.009058
     34          1           0       -4.508725    0.646679    1.880694
     35          1           0       -6.081849    1.202394    1.317845
     36          1           0       -6.128290   -1.199488    1.840385
     37          1           0       -4.781629   -1.512807    0.748485
     38          1           0       -7.055608   -1.972113   -0.126683
     39          1           0       -6.206593   -0.976881   -1.070231
 ---------------------------------------------------------------------

 SCF Done:  E(RB3LYP) =  -730.678515208     A.U. after    1 cycles

 Excitation energies and oscillator strengths:

 Excited State   1:      Singlet-A      7.2828 eV  170.24 nm  f=0.0153  <S**2>=0.000
      60 -> 62         0.62674
      60 -> 66         0.18253
      61 -> 62        -0.22028
 This state for optimization and/or second-order correction.
 Total Energy, E(TD-HF/TD-DFT) =  -730.410877376
 Copying the excited state density for this state as the 1-particle RhoCI density.

 Excited State   2:      Singlet-A      7.4853 eV  165.64 nm  f=0.0166  <S**2>=0.000
      60 -> 63         0.16959
      60 -> 64         0.14578
      61 -> 63         0.48124
      61 -> 64         0.41296
      61 -> 65        -0.15786

 Excited State   3:      Singlet-A      7.8343 eV  158.26 nm  f=0.0172  <S**2>=0.000
      58 -> 62         0.68808

 Excited State   4:      Singlet-A      7.9834 eV  155.30 nm  f=0.0125  <S**2>=0.000
      57 -> 62        -0.26060
      57 -> 64        -0.15513
      59 -> 62         0.40865
      59 -> 63        -0.25171
      59 -> 64         0.23432
      61 -> 62         0.22096
      61 -> 63        -0.11353
      61 -> 64         0.11362

 Excited State   5:      Singlet-A      8.1253 eV  152.59 nm  f=0.0058  <S**2>=0.000
      57 -> 62         0.23763
      57 -> 63        -0.17161
      57 -> 64         0.13714
      59 -> 62        -0.11876
      59 -> 65        -0.12853
      60 -> 62         0.17664
      61 -> 62         0.44616
      61 -> 63        -0.17055
      61 -> 64         0.12092
      61 -> 65        -0.22184

 Excited State   6:      Singlet-A      8.2178 eV  150.87 nm  f=0.0083  <S**2>=0.000
      57 -> 62        -0.12349
      57 -> 63         0.10145
      57 -> 65         0.10667
      59 -> 63         0.29622
      59 -> 65         0.18942
      60 -> 62         0.14127
      61 -> 62         0.42029
      61 -> 63         0.21243
      61 -> 64        -0.10857
      61 -> 65         0.23024

 Excited State   7:      Singlet-A      8.3033 eV  149.32 nm  f=0.0080  <S**2>=0.000
      58 -> 64        -0.12050
      59 -> 62         0.15866
      60 -> 63        -0.39348
      60 -> 64         0.41385
      60 -> 68         0.10211
      61 -> 63         0.14481
      61 -> 64        -0.17344

 Excited State   8:      Singlet-A      8.3351 eV  148.75 nm  f=0.0090  <S**2>=0.000
      57 -> 62        -0.11287
      57 -> 63        -0.13667
      57 -> 64         0.11871
      59 -> 62         0.16146
      59 -> 63         0.12774
      59 -> 64        -0.23809
      60 -> 62        -0.17881
      60 -> 66         0.43410
      60 -> 67        -0.11238
      61 -> 65        -0.20497
      61 -> 66        -0.17286

 Excited State   9:      Singlet-A      8.3550 eV  148.40 nm  f=0.0259  <S**2>=0.000
      57 -> 62         0.14716
      59 -> 62        -0.19166
      59 -> 63        -0.13750
      59 -> 64         0.23327
      60 -> 64         0.13357
      60 -> 65         0.14169
      60 -> 66         0.40871
      61 -> 65         0.18690
      61 -> 66        -0.11344
      61 -> 67         0.17269

 Excited State  10:      Singlet-A      8.3731 eV  148.07 nm  f=0.0224  <S**2>=0.000
      57 -> 62         0.14999
      57 -> 63        -0.25219
      57 -> 64         0.22004
      59 -> 62         0.26417
      59 -> 63        -0.12153
      59 -> 65        -0.23885
      60 -> 63         0.10631
      60 -> 65         0.10251
      61 -> 63         0.13069
      61 -> 65         0.30669
      61 -> 67         0.20693
      61 -> 68         0.10797

 The electronic state is 1-A.
 Alpha  occ. eigenvalues --  -19.15203 -19.15068 -19.14744 -14.31050 -14.30913
 Alpha  occ. eigenvalues --  -10.23262 -10.23103 -10.23078 -10.22837 -10.22831
 Alpha  occ. eigenvalues --  -10.22795 -10.20565 -10.20208 -10.17768 -10.17754
 Alpha  occ. eigenvalues --   -1.03945  -1.02948  -1.02132  -0.87561  -0.87386
 Alpha  occ. eigenvalues --   -0.78307  -0.76664  -0.74662  -0.71820  -0.66206
 Alpha  occ. eigenvalues --   -0.64636  -0.61947  -0.59717  -0.58281  -0.56836
 Alpha  occ. eigenvalues --   -0.51015  -0.49841  -0.49521  -0.49121  -0.48287
 Alpha  occ. eigenvalues --   -0.47267  -0.46603  -0.46481  -0.44676  -0.43905
 Alpha  occ. eigenvalues --   -0.43838  -0.42757  -0.41099  -0.40834  -0.39244
 Alpha  occ. eigenvalues --   -0.38051  -0.37294  -0.36607  -0.35990  -0.35391
 Alpha  occ. eigenvalues --   -0.35064  -0.33890  -0.33417  -0.31544  -0.31142
 Alpha  occ. eigenvalues --   -0.30797  -0.26167  -0.25600  -0.25208  -0.23714
 Alpha  occ. eigenvalues --   -0.23697
 Alpha virt. eigenvalues --    0.07283   0.08688   0.08888   0.10045   0.10649
 Alpha virt. eigenvalues --    0.11490   0.11670   0.12222   0.12730   0.13547
 Alpha virt. eigenvalues --    0.14237   0.14517   0.14593   0.15870   0.16257

 Mulliken charges:
               1
     1  N   -0.643378
     2  C   -0.056352
     3  C   -0.194014
     4  C    0.063261
     5  O   -0.517318
     6  C    0.055312
     7  C    0.052226
     8  O   -0.512612
     9  C    0.037217
    10  C    0.051169
    11  O   -0.498827
    12  C    0.068615
    13  C   -0.187346
    14  C   -0.079951
    15  N   -0.100036
    16  H    0.252560
    17  H    0.250796
    18  H    0.087535
    19  H    0.105462
    20  H    0.104047
    21  H    0.104028
    22  H    0.103903
    23  H    0.091007
    24  H    0.095849
    25  H    0.097155
    26  H    0.098244
    27  H    0.096807
    28  H    0.102339
    29  H    0.091592
    30  H    0.072637
    31  H    0.064153
    32  H    0.042505
    33  H    0.037097
    34  H    0.091223
    35  H    0.101026
    36  H    0.087084
    37  H    0.133314
    38  H    0.086993
    39  H    0.064678
 Sum of Mulliken charges =  -0.00000

 Dipole moment (field-independent basis, Debye):
    X=             -2.1205    Y=              0.1296    Z=              4.4227  Tot=              4.9065
 Quadrupole moment (field-independent basis, Debye-Ang):
   XX=            -60.6581   YY=            -93.2284   ZZ=            -96.6777
   XY=              2.6353   XZ=              8.8852   YZ=              1.4129

 Summary of Natural Population Analysis:

                                       Natural Population
                Natural  -----------------------------------------------
    Atom  No    Charge         Core      Valence    Rydberg      Total
 -----------------------------------------------------------------------
      N    1   -0.92712      1.99968     5.91252    0.01492     7.92712
      C    2   -0.26245      1.99936     4.24996    0.01313     6.26245
      C    3   -0.50619      1.99932     4.49512    0.01175     6.50619
      C    4   -0.10592      1.99927     4.08828    0.01838     6.10592
      O    5   -0.59699      1.99980     6.58438    0.01281     8.59699
      C    6   -0.12966      1.99925     4.11330    0.01711     6.12966
      C    7   -0.13020      1.99925     4.11373    0.01722     6.13020
      O    8   -0.60053      1.99980     6.58754    0.01320     8.60053
      C    9   -0.12853      1.99927     4.10792    0.02133     6.12853
      C   10   -0.16257      1.99930     4.14062    0.02265     6.16257
      O   11   -0.61906      1.99979     6.60471    0.01455     8.61906
      C   12   -0.15052      1.99928     4.12471    0.02653     6.15052
      C   13   -0.50420      1.99930     4.49379    0.01111     6.50420
      C   14   -0.35917      1.99928     4.34103    0.01886     6.35917
      N   15   -0.36046      1.99934     5.34158    0.01954     7.36046
      H   16    0.39077      0.00000     0.60657    0.00266     0.60923
      H   17    0.38385      0.00000     0.61326    0.00289     0.61615
      H   18    0.20499      0.00000     0.79227    0.00274     0.79501
      H   19    0.22603      0.00000     0.77184    0.00214     0.77397
      H   20    0.23899      0.00000     0.75781    0.00321     0.76101
      H   21    0.23131      0.00000     0.76668    0.00201     0.76869
      H   22    0.22589      0.00000     0.77225    0.00186     0.77411
      H   23    0.20298      0.00000     0.79421    0.00281     0.79702
      H   24    0.20964      0.00000     0.78697    0.00338     0.79036
      H   25    0.21291      0.00000     0.78447    0.00263     0.78709
      H   26    0.21365      0.00000     0.78368    0.00267     0.78635
      H   27    0.21020      0.00000     0.78629    0.00351     0.78980
      H   28    0.22475      0.00000     0.77193    0.00332     0.77525
      H   29    0.20356      0.00000     0.79314    0.00330     0.79644
      H   30    0.19305      0.00000     0.80084    0.00611     0.80695
      H   31    0.18374      0.00000     0.80647    0.00979     0.81626
      H   32    0.17383      0.00000     0.81229    0.01388     0.82617
      H   33    0.18355      0.00000     0.79610    0.02035     0.81645
      H   34    0.22862      0.00000     0.76026    0.01112     0.77138
      H   35    0.24014      0.00000     0.75162    0.00824     0.75986
      H   36    0.21414      0.00000     0.76229    0.02356     0.78586
      H   37    0.26668      0.00000     0.70540    0.02792     0.73332
      H   38    0.24600      0.00000     0.68522    0.06878     0.75400
      H   39    0.23266      0.00000     0.69305    0.07429     0.76734
 =======================================================================
   * Total *   -0.00164     29.99129    91.45409    0.55625   122.00164

 Normal termination of Gaussian 16 at Thu Jul 18 04:40:39 2024.
