 Gaussian 16, Revision A.03,

 -------------------------------------------------------
 # opt=CalcFc B3LYP/6-31G** SCRF=(Solvent=water) scf=xqc
 -------------------------------------------------------

 ----------------------------------
 JCEZOHLWDIONSP-UHFFFAOYSA-N_conf_2
 ----------------------------------
 Symbolic Z-matrix:
 Charge =  0 Multiplicity = 1

 SCF Done:  E(RB3LYP) =  -730.676802676     A.U. after   11 cycles
 SCF Done:  E(RB3LYP) =  -730.680598595     A.U. after    9 cycles
 SCF Done:  E(RB3LYP) =  -730.680657321     A.U. after   10 cycles
 SCF Done:  E(RB3LYP) =  -730.680258095     A.U. after   12 cycles
 SCF Done:  E(RB3LYP) =  -730.680760796     A.U. after   10 cycles
 SCF Done:  E(RB3LYP) =  -730.680768272     A.U. after    8 cycles
 SCF Done:  E(RB3LYP) =  -730.680771572     A.U. after    8 cycles
 SCF Done:  E(RB3LYP) =  -730.680771739     A.U. after    7 cycles
 SCF Done:  E(RB3LYP) =  -730.680771583     A.U. after    7 cycles
 SCF Done:  E(RB3LYP) =  -730.680771793     A.U. after    7 cycles
 SCF Done:  E(RB3LYP) =  -730.680771790     A.U. after    6 cycles
 Optimization completed.
    -- Stationary point found.
 Normal termination of Gaussian 16 at Thu Jul 18 03:52:57 2024.

 ----------------------------------------------------------------------
 # freq B3LYP/6-31G** SCRF=(Solvent=water) volume NMR pop=NPA density=c
 urrent Geom=AllCheck Guess=Read
 ----------------------------------------------------------------------

 Structure from the checkpoint file:  "JCEZOHLWDIONSP-UHFFFAOYSA-N_conf_2_1.chk"
 ----------------------------------
 JCEZOHLWDIONSP-UHFFFAOYSA-N_conf_2
 ----------------------------------
 Charge =  0 Multiplicity = 1

 SCF Done:  E(RB3LYP) =  -730.680771790     A.U. after    1 cycles

      1  N    Isotropic =   233.2944   Anisotropy =    30.8510

      2  C    Isotropic =   148.5267   Anisotropy =    37.8599

      3  C    Isotropic =   157.0569   Anisotropy =    24.3554

      4  C    Isotropic =   122.0114   Anisotropy =    68.1716

      5  O    Isotropic =   297.0229   Anisotropy =    36.6373

      6  C    Isotropic =   123.4551   Anisotropy =    80.7239

      7  C    Isotropic =   124.2913   Anisotropy =    75.2455

      8  O    Isotropic =   320.8938   Anisotropy =    37.8733

      9  C    Isotropic =   126.5086   Anisotropy =    76.2442

     10  C    Isotropic =   124.6128   Anisotropy =    80.2170

     11  O    Isotropic =   297.5890   Anisotropy =    45.6870

     12  C    Isotropic =   118.1326   Anisotropy =    60.5971

     13  C    Isotropic =   156.6178   Anisotropy =    15.1680

     14  C    Isotropic =   145.4967   Anisotropy =    24.7598

     15  N    Isotropic =   227.6006   Anisotropy =    21.3465

     16  H    Isotropic =    31.0235   Anisotropy =    15.0775

     17  H    Isotropic =    31.5759   Anisotropy =    12.7822

     18  H    Isotropic =    28.9151   Anisotropy =     6.2357

     19  H    Isotropic =    28.9475   Anisotropy =     6.8472

     20  H    Isotropic =    29.9650   Anisotropy =     5.4842

     21  H    Isotropic =    30.4492   Anisotropy =     7.2101

     22  H    Isotropic =    28.3253   Anisotropy =     5.4687

     23  H    Isotropic =    28.1933   Anisotropy =     6.3854

     24  H    Isotropic =    28.2336   Anisotropy =     6.4540

     25  H    Isotropic =    28.4329   Anisotropy =     4.9672

     26  H    Isotropic =    28.3301   Anisotropy =     6.2780

     27  H    Isotropic =    28.0104   Anisotropy =     5.9754

     28  H    Isotropic =    28.4888   Anisotropy =     5.8249

     29  H    Isotropic =    27.8024   Anisotropy =     7.3344

     30  H    Isotropic =    27.8157   Anisotropy =     6.9811

     31  H    Isotropic =    28.4911   Anisotropy =     4.5730

     32  H    Isotropic =    28.2917   Anisotropy =     5.7849

     33  H    Isotropic =    27.7075   Anisotropy =     5.4667

     34  H    Isotropic =    30.1942   Anisotropy =     5.6392

     35  H    Isotropic =    30.4385   Anisotropy =     8.6420

     36  H    Isotropic =    29.0906   Anisotropy =     6.7646

     37  H    Isotropic =    29.0398   Anisotropy =     8.4398

     38  H    Isotropic =    30.3436   Anisotropy =    13.7097

     39  H    Isotropic =    31.5409   Anisotropy =    11.8883

  Exact polarizability: 188.504   3.850 161.587  -5.037  -0.649 151.813
 Approx polarizability: 183.832   4.399 174.372  -5.133   0.179 167.767

                      1                      2                      3
                      A                      A                      A
 Frequencies --     13.6908                19.9294                29.9273
 Red. masses --      4.8139                 3.3454                 3.2009
 Frc consts  --      0.0005                 0.0008                 0.0017
 IR Inten    --      0.2424                 1.6089                 1.9488

                      4                      5                      6
                      A                      A                      A
 Frequencies --     43.5292                49.1479                70.0596
 Red. masses --      2.9297                 3.8625                 2.5315
 Frc consts  --      0.0033                 0.0055                 0.0073
 IR Inten    --      0.8553                 0.8621                 6.5887

                      7                      8                      9
                      A                      A                      A
 Frequencies --     81.5741                88.5114               107.0498
 Red. masses --      3.6134                 1.9781                 2.5664
 Frc consts  --      0.0142                 0.0091                 0.0173
 IR Inten    --      1.1871                 4.1414                 1.3448

                     10                     11                     12
                      A                      A                      A
 Frequencies --    118.8402               140.5582               143.6907
 Red. masses --      2.6755                 3.5437                 3.4302
 Frc consts  --      0.0223                 0.0412                 0.0417
 IR Inten    --      0.8863                 4.3566                 5.4093

                     13                     14                     15
                      A                      A                      A
 Frequencies --    161.8625               225.0105               259.4921
 Red. masses --      3.7748                 2.3753                 1.3170
 Frc consts  --      0.0583                 0.0709                 0.0522
 IR Inten    --      4.7849                 6.4266                35.0096

                     16                     17                     18
                      A                      A                      A
 Frequencies --    270.2322               280.7390               290.4955
 Red. masses --      1.7910                 2.2483                 2.6190
 Frc consts  --      0.0771                 0.1044                 0.1302
 IR Inten    --     19.3765                 6.1583                17.7645

                     19                     20                     21
                      A                      A                      A
 Frequencies --    310.0967               335.2337               364.3665
 Red. masses --      1.9763                 2.4000                 1.7474
 Frc consts  --      0.1120                 0.1589                 0.1367
 IR Inten    --     52.5815                26.4564                21.6006

                     22                     23                     24
                      A                      A                      A
 Frequencies --    379.1318               410.4762               478.7552
 Red. masses --      3.5032                 2.9592                 3.1110
 Frc consts  --      0.2967                 0.2938                 0.4201
 IR Inten    --      8.5625                 2.4894                 7.3772

                     25                     26                     27
                      A                      A                      A
 Frequencies --    479.4838               560.2133               580.4733
 Red. masses --      2.3576                 2.7157                 2.9770
 Frc consts  --      0.3193                 0.5022                 0.5910
 IR Inten    --      4.0288                 3.8650                 8.3584

                     28                     29                     30
                      A                      A                      A
 Frequencies --    781.1464               786.3326               804.5807
 Red. masses --      1.2718                 1.5030                 1.6407
 Frc consts  --      0.4572                 0.5475                 0.6258
 IR Inten    --      8.0393                13.0913                 6.4646

                     31                     32                     33
                      A                      A                      A
 Frequencies --    818.5887               868.4862               872.9872
 Red. masses --      1.1240                 1.4152                 1.6221
 Frc consts  --      0.4438                 0.6289                 0.7284
 IR Inten    --      0.5348                 3.6787                57.9445

                     34                     35                     36
                      A                      A                      A
 Frequencies --    883.4183               896.2466               937.9642
 Red. masses --      1.8988                 1.7365                 1.9159
 Frc consts  --      0.8731                 0.8218                 0.9931
 IR Inten    --     23.0252               113.4530                53.6083

                     37                     38                     39
                      A                      A                      A
 Frequencies --    962.8110               966.0628               967.3025
 Red. masses --      2.7567                 2.5436                 1.7492
 Frc consts  --      1.5056                 1.3986                 0.9643
 IR Inten    --     17.1630                38.8780               257.0093

                     40                     41                     42
                      A                      A                      A
 Frequencies --   1027.7270              1041.1932              1049.8593
 Red. masses --      1.7199                 2.1867                 2.8346
 Frc consts  --      1.0703                 1.3967                 1.8408
 IR Inten    --     16.0662                 5.5683                12.9502

                     43                     44                     45
                      A                      A                      A
 Frequencies --   1050.5791              1074.4348              1082.9742
 Red. masses --      2.9880                 2.0281                 3.0673
 Frc consts  --      1.9431                 1.3794                 2.1195
 IR Inten    --     25.4640                31.5397                 7.1332

                     46                     47                     48
                      A                      A                      A
 Frequencies --   1087.9720              1105.4477              1121.9921
 Red. masses --      2.6503                 2.5528                 4.2968
 Frc consts  --      1.8483                 1.8380                 3.1869
 IR Inten    --      1.1302               199.8315               325.3214

                     49                     50                     51
                      A                      A                      A
 Frequencies --   1141.0230              1144.3872              1155.1048
 Red. masses --      2.2867                 5.0383                 1.9738
 Frc consts  --      1.7541                 3.8876                 1.5516
 IR Inten    --     22.3593               268.4421                80.1531

                     52                     53                     54
                      A                      A                      A
 Frequencies --   1180.5005              1194.5786              1197.9478
 Red. masses --      2.2432                 1.5738                 1.7415
 Frc consts  --      1.8419                 1.3232                 1.4724
 IR Inten    --     28.4780                 8.5269                 3.3183

                     55                     56                     57
                      A                      A                      A
 Frequencies --   1209.0253              1252.2050              1261.6305
 Red. masses --      1.4294                 1.2128                 1.2406
 Frc consts  --      1.2310                 1.1204                 1.1634
 IR Inten    --      3.2549                48.0265                21.8844

                     58                     59                     60
                      A                      A                      A
 Frequencies --   1271.7068              1294.5136              1297.6414
 Red. masses --      1.2881                 1.1548                 1.2446
 Frc consts  --      1.2274                 1.1402                 1.2348
 IR Inten    --      4.4105                10.1836                40.5390

                     61                     62                     63
                      A                      A                      A
 Frequencies --   1313.5610              1317.7823              1334.2852
 Red. masses --      1.1762                 1.1183                 1.1276
 Frc consts  --      1.1958                 1.1442                 1.1828
 IR Inten    --      3.4422                 3.5383                 7.0379

                     64                     65                     66
                      A                      A                      A
 Frequencies --   1340.5726              1346.1756              1366.0570
 Red. masses --      1.0881                 1.2080                 1.2207
 Frc consts  --      1.1521                 1.2898                 1.3422
 IR Inten    --      2.6109                54.7162                11.4679

                     67                     68                     69
                      A                      A                      A
 Frequencies --   1367.6594              1385.8001              1399.7312
 Red. masses --      1.3742                 1.3467                 1.3709
 Frc consts  --      1.5144                 1.5238                 1.5825
 IR Inten    --      0.8205                 3.1637                11.4473

                     70                     71                     72
                      A                      A                      A
 Frequencies --   1408.6145              1415.4695              1430.4625
 Red. masses --      1.1782                 1.3200                 1.3190
 Frc consts  --      1.3773                 1.5583                 1.5902
 IR Inten    --     13.7197                20.9202                 8.4907

                     73                     74                     75
                      A                      A                      A
 Frequencies --   1437.7087              1443.4288              1460.4821
 Red. masses --      1.5274                 1.3721                 1.4735
 Frc consts  --      1.8601                 1.6843                 1.8518
 IR Inten    --     11.4811                 5.5826                 6.3215

                     76                     77                     78
                      A                      A                      A
 Frequencies --   1474.3259              1484.4002              1496.6501
 Red. masses --      1.0982                 1.0952                 1.0853
 Frc consts  --      1.4064                 1.4219                 1.4323
 IR Inten    --      6.2344                 4.2121                 1.9512

                     79                     80                     81
                      A                      A                      A
 Frequencies --   1498.3965              1509.6390              1520.5548
 Red. masses --      1.0909                 1.0858                 1.0850
 Frc consts  --      1.4431                 1.4579                 1.4781
 IR Inten    --      0.5673                 1.6780                15.4211

                     82                     83                     84
                      A                      A                      A
 Frequencies --   1525.8912              1526.7722              1528.8042
 Red. masses --      1.0905                 1.0870                 1.0877
 Frc consts  --      1.4960                 1.4929                 1.4979
 IR Inten    --      2.8149                 1.5263                 6.7121

                     85                     86                     87
                      A                      A                      A
 Frequencies --   1541.5007              1656.9773              1672.0432
 Red. masses --      1.0895                 1.0876                 1.0825
 Frc consts  --      1.5254                 1.7594                 1.7831
 IR Inten    --      0.9946                34.8824                27.9756

                     88                     89                     90
                      A                      A                      A
 Frequencies --   2952.6312              2971.5536              2981.1779
 Red. masses --      1.0732                 1.0561                 1.0568
 Frc consts  --      5.5127                 5.4943                 5.5335
 IR Inten    --    108.9773                29.6485               130.9425

                     91                     92                     93
                      A                      A                      A
 Frequencies --   2982.7007              3005.4183              3013.0395
 Red. masses --      1.0601                 1.1018                 1.1057
 Frc consts  --      5.5567                 5.8635                 5.9140
 IR Inten    --     63.8618               146.2202                15.6841

                     94                     95                     96
                      A                      A                      A
 Frequencies --   3015.5816              3022.0431              3022.4209
 Red. masses --      1.0675                 1.0761                 1.0686
 Frc consts  --      5.7193                 5.7905                 5.7514
 IR Inten    --     58.2726                20.0843                77.4090

                     97                     98                     99
                      A                      A                      A
 Frequencies --   3029.2526              3035.1150              3036.4774
 Red. masses --      1.0611                 1.0759                 1.0645
 Frc consts  --      5.7369                 5.8392                 5.7827
 IR Inten    --    101.1412                88.4587                55.7956

                    100                    101                    102
                      A                      A                      A
 Frequencies --   3038.9514              3069.2357              3073.9471
 Red. masses --      1.0660                 1.0989                 1.1042
 Frc consts  --      5.8002                 6.0990                 6.1476
 IR Inten    --     46.9777                71.6875                91.8723

                    103                    104                    105
                      A                      A                      A
 Frequencies --   3074.6728              3082.0658              3090.0843
 Red. masses --      1.0914                 1.0985                 1.0979
 Frc consts  --      6.0788                 6.1482                 6.1769
 IR Inten    --     23.6008                 2.4998                95.6885

                    106                    107                    108
                      A                      A                      A
 Frequencies --   3095.8341              3103.1432              3472.4934
 Red. masses --      1.1041                 1.1056                 1.0508
 Frc consts  --      6.2344                 6.2724                 7.4654
 IR Inten    --     70.8378               106.5461                10.1457

                    109                    110                    111
                      A                      A                      A
 Frequencies --   3476.5807              3547.5634              3554.8434
 Red. masses --      1.0511                 1.0902                 1.0912
 Frc consts  --      7.4852                 8.0836                 8.1246
 IR Inten    --      1.7968                13.2163                 0.0579

 - Thermochemistry -
 -------------------
 Temperature   298.150 Kelvin.  Pressure   1.00000 Atm.
 Atom     1 has atomic number  7 and mass  14.00307

 Molecular mass:   220.17869 amu.
 Principal axes and moments of inertia in atomic units:
                           1         2         3
     Eigenvalues --  1757.09269********************
           X            1.00000   0.00298   0.00076
           Y           -0.00297   0.99999  -0.00246
           Z           -0.00077   0.00246   1.00000
 This molecule is an asymmetric top.
 Rotational symmetry number  1.
 Warning -- assumption of classical behavior for rotation
           may cause significant error
 Rotational temperatures (Kelvin)      0.04929     0.00635     0.00583
 Rotational constants (GHZ):           1.02712     0.13232     0.12156
 Zero-point vibrational energy     927294.4 (Joules/Mol)
                                  221.62868 (Kcal/Mol)
 Warning -- explicit consideration of  27 degrees of freedom as
           vibrations may cause significant error
 Vibrational temperatures:     19.70    28.67    43.06    62.63    70.71
          (Kelvin)            100.80   117.37   127.35   154.02   170.98
                              202.23   206.74   232.88   323.74   373.35
                              388.80   403.92   417.96   446.16   482.33
                              524.24   545.49   590.58   688.82   689.87
                              806.02   835.17  1123.90  1131.36  1157.61
                             1177.77  1249.56  1256.03  1271.04  1289.50
                             1349.52  1385.27  1389.95  1391.73  1478.67
                             1498.04  1510.51  1511.55  1545.87  1558.16
                             1565.35  1590.49  1614.30  1641.68  1646.52
                             1661.94  1698.48  1718.73  1723.58  1739.52
                             1801.64  1815.20  1829.70  1862.52  1867.02
                             1889.92  1895.99  1919.74  1928.78  1936.85
                             1965.45  1967.76  1993.86  2013.90  2026.68
                             2036.54  2058.12  2068.54  2076.77  2101.31
                             2121.23  2135.72  2153.35  2155.86  2172.03
                             2187.74  2195.42  2196.68  2199.61  2217.88
                             2384.02  2405.70  4248.18  4275.40  4289.25
                             4291.44  4324.13  4335.09  4338.75  4348.05
                             4348.59  4358.42  4366.85  4368.81  4372.37
                             4415.95  4422.72  4423.77  4434.41  4445.94
                             4454.21  4464.73  4996.14  5002.02  5104.15
                             5114.63

 Zero-point correction=                           0.353188 (Hartree/Particle)
 Thermal correction to Energy=                    0.372342
 Thermal correction to Enthalpy=                  0.373286
 Thermal correction to Gibbs Free Energy=         0.301059
 Sum of electronic and zero-point Energies=           -730.327584
 Sum of electronic and thermal Energies=              -730.308430
 Sum of electronic and thermal Enthalpies=            -730.307486
 Sum of electronic and thermal Free Energies=         -730.379712

                     E (Thermal)             CV                S
                      KCal/Mol        Cal/Mol-Kelvin    Cal/Mol-Kelvin
 Total                  233.648             66.633            152.014
 Electronic               0.000              0.000              0.000
 Translational            0.889              2.981             42.071
 Rotational               0.889              2.981             34.230
 Vibrational            231.871             60.672             75.713
 Vibration     1          0.593              1.986              7.387
 Vibration     2          0.593              1.986              6.641
 Vibration     3          0.594              1.984              5.834
 Vibration     4          0.595              1.980              5.092
 Vibration     5          0.595              1.978              4.851
 Vibration     6          0.598              1.968              4.152
 Vibration     7          0.600              1.962              3.853
 Vibration     8          0.601              1.957              3.693
 Vibration     9          0.606              1.944              3.322
 Vibration    10          0.609              1.934              3.119
 Vibration    11          0.615              1.913              2.796
 Vibration    12          0.616              1.909              2.754
 Vibration    13          0.622              1.889              2.528
 Vibration    14          0.650              1.803              1.918
 Vibration    15          0.668              1.747              1.665
 Vibration    16          0.674              1.728              1.595
 Vibration    17          0.680              1.709              1.529
 Vibration    18          0.686              1.691              1.471
 Vibration    19          0.699              1.654              1.362
 Vibration    20          0.716              1.605              1.235
 Vibration    21          0.738              1.546              1.103
 Vibration    22          0.749              1.515              1.043
 Vibration    23          0.775              1.447              0.925
 Vibration    24          0.835              1.297              0.713
 Vibration    25          0.836              1.296              0.711
 Vibration    26          0.916              1.117              0.523
 Vibration    27          0.937              1.074              0.484

 Optimization completed.
    -- Stationary point found.
 Normal termination of Gaussian 16 at Thu Jul 18 04:12:10 2024.
 Gaussian 16:  ES64L-G16RevA.03 25-Dec-2016

 ----------------------------------------------------------------------
 # TD(NStates=10, Root=1) B3LYP/6-31G** SCRF=(Solvent=water) volume pop
 =NPA density=current Geom=AllCheck Guess=Read
 ----------------------------------------------------------------------

 Structure from the checkpoint file:  "JCEZOHLWDIONSP-UHFFFAOYSA-N_conf_2_2.chk"
 ----------------------------------
 JCEZOHLWDIONSP-UHFFFAOYSA-N_conf_2
 ----------------------------------
 Charge =  0 Multiplicity = 1

                         Standard orientation:
 ---------------------------------------------------------------------
 Center     Atomic      Atomic             Coordinates (Angstroms)
 Number     Number       Type             X           Y           Z
 ---------------------------------------------------------------------
      1          7           0        6.262604    2.343662   -0.357283
      2          6           0        5.102784    1.599700    0.156431
      3          6           0        5.426698    0.108291    0.269836
      4          6           0        4.259600   -0.728883    0.773978
      5          8           0        3.191489   -0.648799   -0.164940
      6          6           0        2.047974   -1.385690    0.229528
      7          6           0        0.995821   -1.235027   -0.866771
      8          8           0       -0.175235   -1.981097   -0.548044
      9          6           0       -1.170905   -1.259836    0.175862
     10          6           0       -2.171123   -0.615083   -0.791390
     11          8           0       -3.173305    0.131960   -0.110591
     12          6           0       -4.269624   -0.651942    0.372785
     13          6           0       -5.314748    0.260553    1.005087
     14          6           0       -5.984614    1.248282    0.031730
     15          7           0       -5.158115    2.367931   -0.446396
     16          1           0        6.009903    3.325149   -0.456128
     17          1           0        7.000234    2.329633    0.346109
     18          1           0        4.744286    1.961365    1.136373
     19          1           0        4.274162    1.732426   -0.546876
     20          1           0        5.751022   -0.268511   -0.707304
     21          1           0        6.267943   -0.034334    0.961307
     22          1           0        3.920449   -0.365972    1.758572
     23          1           0        4.568686   -1.778163    0.902524
     24          1           0        1.655348   -1.015030    1.190392
     25          1           0        2.289699   -2.452125    0.362284
     26          1           0        0.770184   -0.171964   -1.022502
     27          1           0        1.388896   -1.633200   -1.807826
     28          1           0       -0.726444   -0.487841    0.817317
     29          1           0       -1.674015   -1.982296    0.826302
     30          1           0       -1.647042    0.090377   -1.444659
     31          1           0       -2.620323   -1.391354   -1.427303
     32          1           0       -4.714446   -1.213481   -0.464731
     33          1           0       -3.921482   -1.387501    1.111861
     34          1           0       -4.859489    0.812890    1.837699
     35          1           0       -6.084376   -0.389239    1.442477
     36          1           0       -6.343384    0.690919   -0.844638
     37          1           0       -6.875719    1.669357    0.512192
     38          1           0       -4.274270    1.976010   -0.768586
     39          1           0       -4.906011    2.943036    0.357042
 ---------------------------------------------------------------------

 SCF Done:  E(RB3LYP) =  -730.680771790     A.U. after    1 cycles

 Excitation energies and oscillator strengths:

 Excited State   1:      Singlet-A      7.3448 eV  168.81 nm  f=0.0036  <S**2>=0.000
      59 -> 62        -0.19655
      61 -> 62         0.60670
      61 -> 63        -0.21988
      61 -> 66        -0.10443
 This state for optimization and/or second-order correction.
 Total Energy, E(TD-HF/TD-DFT) =  -730.410854836
 Copying the excited state density for this state as the 1-particle RhoCI density.

 Excited State   2:      Singlet-A      7.5156 eV  164.97 nm  f=0.0146  <S**2>=0.000
      60 -> 62        -0.11139
      60 -> 63        -0.14103
      60 -> 64         0.40309
      60 -> 65         0.54824

 Excited State   3:      Singlet-A      7.5939 eV  163.27 nm  f=0.0159  <S**2>=0.000
      59 -> 62         0.56063
      61 -> 63        -0.31901
      61 -> 66        -0.22029

 Excited State   4:      Singlet-A      7.9076 eV  156.79 nm  f=0.0061  <S**2>=0.000
      59 -> 62         0.22589
      59 -> 63        -0.40699
      61 -> 62         0.17101
      61 -> 63         0.43925
      61 -> 64         0.11699
      61 -> 66        -0.14039

 Excited State   5:      Singlet-A      7.9903 eV  155.17 nm  f=0.0039  <S**2>=0.000
      58 -> 62        -0.30354
      58 -> 63        -0.10393
      58 -> 64         0.19496
      58 -> 65        -0.13556
      60 -> 62         0.45282
      60 -> 64        -0.15183
      60 -> 65         0.22044
      61 -> 66         0.12671

 Excited State   6:      Singlet-A      8.0085 eV  154.81 nm  f=0.0123  <S**2>=0.000
      57 -> 62         0.10741
      59 -> 62         0.23866
      59 -> 63         0.23837
      60 -> 62        -0.20035
      61 -> 62         0.26632
      61 -> 63         0.16499
      61 -> 66         0.42416
      61 -> 67        -0.12735

 Excited State   7:      Singlet-A      8.0518 eV  153.98 nm  f=0.0284  <S**2>=0.000
      58 -> 62         0.41536
      58 -> 63         0.14277
      58 -> 64        -0.27478
      58 -> 65         0.19360
      59 -> 64         0.10502
      60 -> 62         0.34349
      60 -> 65         0.14655

 Excited State   8:      Singlet-A      8.2049 eV  151.11 nm  f=0.0072  <S**2>=0.000
      57 -> 62         0.15528
      58 -> 62         0.12140
      59 -> 64        -0.28376
      59 -> 65         0.16839
      61 -> 64         0.51058
      61 -> 65        -0.21645

 Excited State   9:      Singlet-A      8.2517 eV  150.25 nm  f=0.0059  <S**2>=0.000
      58 -> 64        -0.12786
      60 -> 62         0.29796
      60 -> 64         0.50527
      60 -> 65        -0.28298
      60 -> 68         0.12423

 Excited State  10:      Singlet-A      8.2668 eV  149.98 nm  f=0.0064  <S**2>=0.000
      57 -> 62         0.13425
      59 -> 63         0.42393
      59 -> 64         0.10513
      61 -> 63         0.32292
      61 -> 66        -0.36573

 The electronic state is 1-A.
 Alpha  occ. eigenvalues --  -19.15502 -19.15469 -19.15071 -14.30931 -14.30255
 Alpha  occ. eigenvalues --  -10.23275 -10.23164 -10.23073 -10.23042 -10.22947
 Alpha  occ. eigenvalues --  -10.22905 -10.20191 -10.20157 -10.17988 -10.17931
 Alpha  occ. eigenvalues --   -1.03899  -1.03224  -1.02603  -0.87409  -0.87025
 Alpha  occ. eigenvalues --   -0.78268  -0.77059  -0.74499  -0.70942  -0.66436
 Alpha  occ. eigenvalues --   -0.64586  -0.62391  -0.59310  -0.58059  -0.58006
 Alpha  occ. eigenvalues --   -0.51189  -0.50525  -0.49455  -0.48804  -0.48420
 Alpha  occ. eigenvalues --   -0.47856  -0.46547  -0.45471  -0.45306  -0.43738
 Alpha  occ. eigenvalues --   -0.43214  -0.41804  -0.40878  -0.40491  -0.40005
 Alpha  occ. eigenvalues --   -0.38947  -0.37777  -0.36161  -0.35892  -0.34571
 Alpha  occ. eigenvalues --   -0.34282  -0.34179  -0.33664  -0.32113  -0.31840
 Alpha  occ. eigenvalues --   -0.30877  -0.27848  -0.25747  -0.24706  -0.23695
 Alpha  occ. eigenvalues --   -0.22943
 Alpha virt. eigenvalues --    0.07430   0.08712   0.08880   0.09254   0.10696
 Alpha virt. eigenvalues --    0.11277   0.12104   0.13310   0.13472   0.13781
 Alpha virt. eigenvalues --    0.14389   0.14622   0.15179   0.15526   0.16042

 Mulliken charges:
               1
     1  N   -0.645078
     2  C   -0.045470
     3  C   -0.195355
     4  C    0.071599
     5  O   -0.513551
     6  C    0.066028
     7  C   -0.011280
     8  O   -0.441382
     9  C   -0.032040
    10  C   -0.038432
    11  O   -0.392147
    12  C    0.045645
    13  C   -0.181776
    14  C   -0.061281
    15  N   -0.354131
    16  H    0.251497
    17  H    0.249088
    18  H    0.080152
    19  H    0.107789
    20  H    0.102683
    21  H    0.099452
    22  H    0.085425
    23  H    0.087301
    24  H    0.088228
    25  H    0.088098
    26  H    0.092577
    27  H    0.107369
    28  H    0.096168
    29  H    0.106472
    30  H    0.104658
    31  H    0.082571
    32  H    0.061663
    33  H    0.059818
    34  H    0.105648
    35  H    0.080602
    36  H    0.117686
    37  H    0.078488
    38  H    0.200572
    39  H    0.194649
 Sum of Mulliken charges =  -0.00000

 Dipole moment (field-independent basis, Debye):
    X=             -3.3538    Y=              2.6172    Z=              3.3016  Tot=              5.3850
 Quadrupole moment (field-independent basis, Debye-Ang):
   XX=            -79.4311   YY=            -91.6620   ZZ=            -96.2727
   XY=             -0.7187   XZ=             10.5409   YZ=              1.7977

 Summary of Natural Population Analysis:

                                       Natural Population
                Natural  -----------------------------------------------
    Atom  No    Charge         Core      Valence    Rydberg      Total
 -----------------------------------------------------------------------
      N    1   -0.92882      1.99968     5.91440    0.01474     7.92882
      C    2   -0.26350      1.99936     4.24999    0.01415     6.26350
      C    3   -0.49591      1.99931     4.48412    0.01247     6.49591
      C    4   -0.10755      1.99928     4.09212    0.01615     6.10755
      O    5   -0.60915      1.99978     6.59610    0.01327     8.60915
      C    6   -0.13834      1.99929     4.11942    0.01962     6.13834
      C    7   -0.15958      1.99928     4.13728    0.02301     6.15958
      O    8   -0.56911      1.99981     6.55258    0.01672     8.56911
      C    9   -0.20043      1.99928     4.16900    0.03216     6.20043
      C   10   -0.22278      1.99931     4.18854    0.03493     6.22278
      O   11   -0.53619      1.99979     6.52059    0.01581     8.53619
      C   12   -0.16052      1.99925     4.13875    0.02251     6.16052
      C   13   -0.48457      1.99928     4.47360    0.01169     6.48457
      C   14   -0.31584      1.99934     4.29882    0.01768     6.31584
      N   15   -0.57541      1.99949     5.56265    0.01327     7.57541
      H   16    0.39022      0.00000     0.60713    0.00265     0.60978
      H   17    0.38277      0.00000     0.61426    0.00297     0.61723
      H   18    0.20112      0.00000     0.79609    0.00279     0.79888
      H   19    0.22988      0.00000     0.76739    0.00273     0.77012
      H   20    0.23899      0.00000     0.75778    0.00323     0.76101
      H   21    0.23992      0.00000     0.75793    0.00214     0.76008
      H   22    0.20117      0.00000     0.79560    0.00323     0.79883
      H   23    0.20894      0.00000     0.78823    0.00284     0.79106
      H   24    0.20142      0.00000     0.79501    0.00356     0.79858
      H   25    0.20337      0.00000     0.79311    0.00352     0.79663
      H   26    0.20437      0.00000     0.79037    0.00526     0.79563
      H   27    0.22791      0.00000     0.76952    0.00257     0.77209
      H   28    0.20786      0.00000     0.78799    0.00415     0.79214
      H   29    0.22977      0.00000     0.76668    0.00355     0.77023
      H   30    0.23122      0.00000     0.76536    0.00342     0.76878
      H   31    0.20095      0.00000     0.79118    0.00787     0.79905
      H   32    0.19173      0.00000     0.79084    0.01743     0.80827
      H   33    0.19407      0.00000     0.78451    0.02142     0.80593
      H   34    0.24025      0.00000     0.74941    0.01033     0.75975
      H   35    0.21800      0.00000     0.76754    0.01446     0.78200
      H   36    0.23822      0.00000     0.75029    0.01149     0.76178
      H   37    0.20987      0.00000     0.76743    0.02270     0.79013
      H   38    0.34868      0.00000     0.61947    0.03186     0.65132
      H   39    0.32698      0.00000     0.63351    0.03951     0.67302
 =======================================================================
   * Total *    0.00000     29.99152    91.50461    0.50387   122.00000

 Normal termination of Gaussian 16 at Thu Jul 18 04:32:05 2024.
