 Gaussian 16, Revision A.03,

 -------------------------------------------------------
 # opt=CalcFc B3LYP/6-31G** SCRF=(Solvent=water) scf=xqc
 -------------------------------------------------------

 ----------------------------------
 OCIDXARMXNJACB-UHFFFAOYSA-N_conf_0
 ----------------------------------
 Symbolic Z-matrix:
 Charge =  0 Multiplicity = 1

 SCF Done:  E(RB3LYP) =  -421.595237028     A.U. after   12 cycles
 SCF Done:  E(RB3LYP) =  -421.597504833     A.U. after   10 cycles
 SCF Done:  E(RB3LYP) =  -421.597637764     A.U. after    9 cycles
 SCF Done:  E(RB3LYP) =  -421.597653360     A.U. after    9 cycles
 SCF Done:  E(RB3LYP) =  -421.597656142     A.U. after    8 cycles
 SCF Done:  E(RB3LYP) =  -421.597656287     A.U. after    7 cycles
 Optimization completed.
    -- Stationary point found.
 Normal termination of Gaussian 16 at Thu Jul 11 20:40:44 2024.

 ----------------------------------------------------------------------
 # freq B3LYP/6-31G** SCRF=(Solvent=water) volume NMR pop=NPA density=c
 urrent Geom=AllCheck Guess=Read
 ----------------------------------------------------------------------

 Structure from the checkpoint file:  "OCIDXARMXNJACB-UHFFFAOYSA-N_conf_0_1.chk"
 ----------------------------------
 OCIDXARMXNJACB-UHFFFAOYSA-N_conf_0
 ----------------------------------
 Charge =  0 Multiplicity = 1

 SCF Done:  E(RB3LYP) =  -421.597656287     A.U. after    1 cycles

      1  N    Isotropic =   243.6067   Anisotropy =    53.1252

      2  C    Isotropic =   148.8961   Anisotropy =    25.4818

      3  C    Isotropic =   144.1418   Anisotropy =    17.2726

      4  N    Isotropic =   187.5855   Anisotropy =    66.5129

      5  C    Isotropic =    48.8792   Anisotropy =   159.1531

      6  C    Isotropic =    81.8945   Anisotropy =   128.4723

      7  C    Isotropic =    68.2874   Anisotropy =   166.1672

      8  C    Isotropic =    80.2642   Anisotropy =   152.2854

      9  C    Isotropic =    67.7119   Anisotropy =   167.8066

     10  C    Isotropic =    86.3365   Anisotropy =   142.5245

     11  H    Isotropic =    31.8382   Anisotropy =    13.6544

     12  H    Isotropic =    30.7226   Anisotropy =    12.9590

     13  H    Isotropic =    28.9722   Anisotropy =     7.5127

     14  H    Isotropic =    28.7882   Anisotropy =     8.7623

     15  H    Isotropic =    29.1168   Anisotropy =     7.3326

     16  H    Isotropic =    28.7364   Anisotropy =     6.3746

     17  H    Isotropic =    28.3569   Anisotropy =     9.6060

     18  H    Isotropic =    25.0902   Anisotropy =     6.9755

     19  H    Isotropic =    24.4977   Anisotropy =     4.4060

     20  H    Isotropic =    24.9795   Anisotropy =     3.4179

     21  H    Isotropic =    24.4577   Anisotropy =     4.7492

     22  H    Isotropic =    25.1510   Anisotropy =     8.4155

  Exact polarizability: 173.413  -2.196 137.547  -6.607  -4.567  65.694
 Approx polarizability: 192.425   0.341 166.443  -9.895  -6.677  78.267

                      1                      2                      3
                      A                      A                      A
 Frequencies --     41.8278                65.2409               126.5063
 Red. masses --      3.7485                 2.9053                 3.4595
 Frc consts  --      0.0039                 0.0073                 0.0326
 IR Inten    --      0.3816                 0.4895                 5.1644

                      4                      5                      6
                      A                      A                      A
 Frequencies --    160.8459               234.3095               272.7289
 Red. masses --      2.3299                 3.4573                 2.2572
 Frc consts  --      0.0355                 0.1118                 0.0989
 IR Inten    --      3.1310                 1.9275                13.6671

                      7                      8                      9
                      A                      A                      A
 Frequencies --    324.7582               404.9955               420.7701
 Red. masses --      1.2612                 3.0182                 3.1224
 Frc consts  --      0.0784                 0.2917                 0.3257
 IR Inten    --     65.4569                47.3665                 0.0923

                     10                     11                     12
                      A                      A                      A
 Frequencies --    456.0542               506.6602               544.4156
 Red. masses --      2.4885                 2.0128                 2.1008
 Frc consts  --      0.3049                 0.3044                 0.3669
 IR Inten    --     47.8494                69.4046                79.4016

                     13                     14                     15
                      A                      A                      A
 Frequencies --    625.0866               630.8064               706.2243
 Red. masses --      3.1227                 6.2472                 2.1496
 Frc consts  --      0.7189                 1.4646                 0.6317
 IR Inten    --     43.1513                 0.5045                16.4997

                     16                     17                     18
                      A                      A                      A
 Frequencies --    762.8832               804.9280               831.1723
 Red. masses --      1.6999                 1.7013                 1.2579
 Frc consts  --      0.5829                 0.6494                 0.5120
 IR Inten    --     82.5980                25.3565                 0.4312

                     19                     20                     21
                      A                      A                      A
 Frequencies --    848.6008               879.8458               905.4145
 Red. masses --      1.9782                 1.4971                 2.4657
 Frc consts  --      0.8393                 0.6828                 1.1909
 IR Inten    --    189.5421                10.7210                38.5949

                     22                     23                     24
                      A                      A                      A
 Frequencies --    921.7573               962.0401               984.3297
 Red. masses --      1.6291                 1.3254                 1.2231
 Frc consts  --      0.8155                 0.7228                 0.6982
 IR Inten    --    131.9599                 0.1680                 0.4287

                     25                     26                     27
                      A                      A                      A
 Frequencies --   1003.7565              1018.9461              1053.6452
 Red. masses --      5.2357                 1.6580                 2.1852
 Frc consts  --      3.1080                 1.0142                 1.4294
 IR Inten    --      1.8985                28.0734                13.4929

                     28                     29                     30
                      A                      A                      A
 Frequencies --   1102.4149              1114.2274              1145.6803
 Red. masses --      1.8839                 2.5400                 2.4976
 Frc consts  --      1.3489                 1.8580                 1.9315
 IR Inten    --      1.1011                18.4929                13.8524

                     31                     32                     33
                      A                      A                      A
 Frequencies --   1179.0317              1200.1407              1205.4563
 Red. masses --      1.0823                 1.3227                 1.1346
 Frc consts  --      0.8865                 1.1224                 0.9714
 IR Inten    --      4.7530                15.8278                15.5693

                     34                     35                     36
                      A                      A                      A
 Frequencies --   1272.2595              1297.9920              1354.3133
 Red. masses --      1.3587                 1.9353                 2.2056
 Frc consts  --      1.2958                 1.9211                 2.3835
 IR Inten    --     14.2725               165.6899                85.7118

                     37                     38                     39
                      A                      A                      A
 Frequencies --   1368.8109              1381.4092              1399.4445
 Red. masses --      2.0919                 1.4061                 1.2922
 Frc consts  --      2.3092                 1.5809                 1.4910
 IR Inten    --     15.0747                 1.6056                18.0136

                     40                     41                     42
                      A                      A                      A
 Frequencies --   1405.8557              1472.7556              1487.9043
 Red. masses --      1.2551                 1.8180                 1.0905
 Frc consts  --      1.4615                 2.3232                 1.4224
 IR Inten    --      6.1548                32.2023                 2.7407

                     43                     44                     45
                      A                      A                      A
 Frequencies --   1517.5125              1535.7093              1546.4740
 Red. masses --      1.1326                 1.6899                 2.2258
 Frc consts  --      1.5366                 2.3482                 3.1364
 IR Inten    --     69.7415                 6.0929               215.0469

                     46                     47                     48
                      A                      A                      A
 Frequencies --   1633.8947              1654.6540              1658.6070
 Red. masses --      4.8213                 1.0948                 5.5300
 Frc consts  --      7.5834                 1.7661                 8.9631
 IR Inten    --     14.8930                37.5708               185.9293

                     49                     50                     51
                      A                      A                      A
 Frequencies --   2956.6122              3044.3718              3060.1930
 Red. masses --      1.0719                 1.0638                 1.0861
 Frc consts  --      5.5208                 5.8089                 5.9925
 IR Inten    --    110.0637                34.3524                86.6741

                     52                     53                     54
                      A                      A                      A
 Frequencies --   3091.7790              3169.3232              3178.6900
 Red. masses --      1.1056                 1.0865                 1.0871
 Frc consts  --      6.2267                 6.4298                 6.4719
 IR Inten    --     54.7950                19.4426                 3.5853

                     55                     56                     57
                      A                      A                      A
 Frequencies --   3186.9758              3204.3148              3215.1724
 Red. masses --      1.0927                 1.0955                 1.0930
 Frc consts  --      6.5391                 6.6273                 6.6571
 IR Inten    --     48.2211                47.0423                14.2176

                     58                     59                     60
                      A                      A                      A
 Frequencies --   3488.6954              3575.8593              3582.5975
 Red. masses --      1.0496                 1.0924                 1.0757
 Frc consts  --      7.5264                 8.2300                 8.1349
 IR Inten    --      0.7071                 0.8929                31.2558

 - Thermochemistry -
 -------------------
 Temperature   298.150 Kelvin.  Pressure   1.00000 Atm.
 Atom     1 has atomic number  7 and mass  14.00307

 Molecular mass:   136.10005 amu.
 Principal axes and moments of inertia in atomic units:
                           1         2         3
     Eigenvalues --   461.082452931.597623301.05440
           X            1.00000  -0.00252  -0.00029
           Y            0.00252   1.00000   0.00005
           Z            0.00029  -0.00005   1.00000
 This molecule is an asymmetric top.
 Rotational symmetry number  1.
 Warning -- assumption of classical behavior for rotation
           may cause significant error
 Rotational temperatures (Kelvin)      0.18785     0.02954     0.02624
 Rotational constants (GHZ):           3.91414     0.61562     0.54672
 Zero-point vibrational energy     503554.2 (Joules/Mol)
                                  120.35233 (Kcal/Mol)
 Warning -- explicit consideration of  12 degrees of freedom as
           vibrations may cause significant error
 Vibrational temperatures:     60.18    93.87   182.01   231.42   337.12
          (Kelvin)            392.40   467.25   582.70   605.39   656.16
                              728.97   783.29   899.36   907.59  1016.10
                             1097.62  1158.11  1195.87  1220.95  1265.90
                             1302.69  1326.20  1384.16  1416.23  1444.18
                             1466.04  1515.96  1586.13  1603.12  1648.38
                             1696.36  1726.73  1734.38  1830.50  1867.52
                             1948.55  1969.41  1987.54  2013.49  2022.71
                             2118.97  2140.76  2183.36  2209.54  2225.03
                             2350.81  2380.68  2386.37  4253.91  4380.17
                             4402.94  4448.38  4559.95  4573.43  4585.35
                             4610.29  4625.92  5019.45  5144.86  5154.56

 Zero-point correction=                           0.191794 (Hartree/Particle)
 Thermal correction to Energy=                    0.201473
 Thermal correction to Enthalpy=                  0.202417
 Thermal correction to Gibbs Free Energy=         0.156163
 Sum of electronic and zero-point Energies=           -421.405863
 Sum of electronic and thermal Energies=              -421.396183
 Sum of electronic and thermal Enthalpies=            -421.395239
 Sum of electronic and thermal Free Energies=         -421.441493

                     E (Thermal)             CV                S
                      KCal/Mol        Cal/Mol-Kelvin    Cal/Mol-Kelvin
 Total                  126.426             36.924             97.350
 Electronic               0.000              0.000              0.000
 Translational            0.889              2.981             40.637
 Rotational               0.889              2.981             29.880
 Vibrational            124.649             30.963             26.833
 Vibration     1          0.594              1.980              5.171
 Vibration     2          0.597              1.971              4.292
 Vibration     3          0.611              1.927              2.998
 Vibration     4          0.622              1.890              2.540
 Vibration     5          0.654              1.788              1.846
 Vibration     6          0.676              1.724              1.579
 Vibration     7          0.709              1.626              1.286
 Vibration     8          0.770              1.459              0.944
 Vibration     9          0.783              1.425              0.889
 Vibration    10          0.814              1.348              0.778
 Vibration    11          0.862              1.235              0.642
 Vibration    12          0.900              1.152              0.556

                           ! Non-Optimized Parameters !
 Normal termination of Gaussian 16 at Thu Jul 11 20:57:31 2024.
 Gaussian 16:  EM64L-G16RevA.03 25-Dec-2016

 ----------------------------------------------------------------------
 # TD(NStates=10, Root=1) B3LYP/6-31G** SCRF=(Solvent=water) volume pop
 =NPA density=current Geom=AllCheck Guess=Read
 ----------------------------------------------------------------------

 Structure from the checkpoint file:  "OCIDXARMXNJACB-UHFFFAOYSA-N_conf_0_2.chk"
 ----------------------------------
 OCIDXARMXNJACB-UHFFFAOYSA-N_conf_0
 ----------------------------------
 Charge =  0 Multiplicity = 1

                         Standard orientation:
 ---------------------------------------------------------------------
 Center     Atomic      Atomic             Coordinates (Angstroms)
 Number     Number       Type             X           Y           Z
 ---------------------------------------------------------------------
      1          7           0        3.776461    0.725567    0.471557
      2          6           0        3.240703   -0.398925   -0.302240
      3          6           0        1.788386   -0.809494   -0.018499
      4          7           0        0.859628    0.262509   -0.347360
      5          6           0       -0.512417    0.128689   -0.146498
      6          6           0       -1.325278    1.283036   -0.147644
      7          6           0       -2.704393    1.184343    0.001135
      8          6           0       -3.320334   -0.063167    0.155062
      9          6           0       -2.523101   -1.207998    0.160673
     10          6           0       -1.136291   -1.123690    0.017092
     11          1           0        3.576575    0.598598    1.461963
     12          1           0        3.338888    1.601542    0.196772
     13          1           0        3.343421   -0.155182   -1.365697
     14          1           0        3.870520   -1.276133   -0.113763
     15          1           0        1.696587   -1.125409    1.035875
     16          1           0        1.555596   -1.686947   -0.633491
     17          1           0        1.204946    1.176996   -0.082815
     18          1           0       -0.858914    2.257750   -0.270325
     19          1           0       -3.303788    2.090822   -0.001802
     20          1           0       -4.397002   -0.137467    0.270889
     21          1           0       -2.979449   -2.186540    0.284762
     22          1           0       -0.543646   -2.031321    0.033771
 ---------------------------------------------------------------------

 SCF Done:  E(RB3LYP) =  -421.597656287     A.U. after    1 cycles

 Excitation energies and oscillator strengths:

 Excited State   1:      Singlet-A      4.6579 eV  266.18 nm  f=0.0767  <S**2>=0.000
      35 -> 39         0.17894
      37 -> 38         0.68263
 This state for optimization and/or second-order correction.
 Total Energy, E(TD-HF/TD-DFT) =  -421.426481820
 Copying the excited state density for this state as the 1-particle RhoCI density.

 Excited State   2:      Singlet-A      5.3680 eV  230.97 nm  f=0.4904  <S**2>=0.000
      35 -> 38        -0.13068
      37 -> 39         0.68880

 Excited State   3:      Singlet-A      6.1196 eV  202.60 nm  f=0.0006  <S**2>=0.000
      36 -> 38         0.69760

 Excited State   4:      Singlet-A      6.4094 eV  193.44 nm  f=0.1499  <S**2>=0.000
      34 -> 38        -0.19666
      35 -> 38        -0.22346
      35 -> 39         0.37568
      36 -> 39        -0.16220
      37 -> 40         0.46275

 Excited State   5:      Singlet-A      6.4574 eV  192.00 nm  f=0.1224  <S**2>=0.000
      35 -> 38         0.30501
      36 -> 39         0.43980
      37 -> 40         0.42786

 Excited State   6:      Singlet-A      6.4994 eV  190.76 nm  f=0.0929  <S**2>=0.000
      34 -> 38        -0.18754
      35 -> 38        -0.11311
      35 -> 39         0.34335
      36 -> 39         0.48696
      37 -> 40        -0.27806

 Excited State   7:      Singlet-A      6.5646 eV  188.87 nm  f=0.4891  <S**2>=0.000
      34 -> 38        -0.15834
      35 -> 38         0.55284
      35 -> 39         0.30042
      36 -> 39        -0.20376
      37 -> 40        -0.10767

 Excited State   8:      Singlet-A      7.1489 eV  173.43 nm  f=0.0003  <S**2>=0.000
      37 -> 41         0.70217

 Excited State   9:      Singlet-A      7.2900 eV  170.08 nm  f=0.0287  <S**2>=0.000
      36 -> 40         0.45328
      37 -> 42         0.52964

 Excited State  10:      Singlet-A      7.3305 eV  169.13 nm  f=0.0261  <S**2>=0.000
      36 -> 40         0.53081
      37 -> 42        -0.44974

 The electronic state is 1-A.
 Alpha  occ. eigenvalues --  -14.34013 -14.31769 -10.22579 -10.21271 -10.21075
 Alpha  occ. eigenvalues --  -10.18647 -10.18621 -10.18117 -10.17997 -10.17685
 Alpha  occ. eigenvalues --   -0.93233  -0.87849  -0.83431  -0.74623  -0.73787
 Alpha  occ. eigenvalues --   -0.69951  -0.62228  -0.60002  -0.57866  -0.52590
 Alpha  occ. eigenvalues --   -0.50040  -0.48550  -0.46343  -0.44833  -0.43527
 Alpha  occ. eigenvalues --   -0.42289  -0.41251  -0.39241  -0.38719  -0.36960
 Alpha  occ. eigenvalues --   -0.35302  -0.35026  -0.33246  -0.29220  -0.24761
 Alpha  occ. eigenvalues --   -0.24267  -0.19725
 Alpha virt. eigenvalues --    0.00185   0.01693   0.07308   0.10110   0.10506
 Alpha virt. eigenvalues --    0.13958   0.14627   0.14818   0.16053   0.16499
 Alpha virt. eigenvalues --    0.17481   0.17670   0.18628   0.20164   0.21898

 Mulliken charges:
               1
     1  N   -0.628075
     2  C   -0.092085
     3  C   -0.057486
     4  N   -0.494525
     5  C    0.293475
     6  C   -0.187107
     7  C   -0.165344
     8  C   -0.069476
     9  C   -0.182872
    10  C   -0.151320
    11  H    0.262066
    12  H    0.259917
    13  H    0.130775
    14  H    0.129546
    15  H    0.150771
    16  H    0.149383
    17  H    0.290254
    18  H    0.066441
    19  H    0.064999
    20  H    0.089771
    21  H    0.064161
    22  H    0.076731
 Sum of Mulliken charges =  -0.00000

 Dipole moment (field-independent basis, Debye):
    X=              4.6583    Y=              0.0133    Z=              0.7397  Tot=              4.7167
 Quadrupole moment (field-independent basis, Debye-Ang):
   XX=            -69.2030   YY=            -56.1302   ZZ=            -62.2938
   XY=             -1.2441   XZ=              0.6489   YZ=              0.1249

 Summary of Natural Population Analysis:

                                       Natural Population
                Natural  -----------------------------------------------
    Atom  No    Charge         Core      Valence    Rydberg      Total
 -----------------------------------------------------------------------
      N    1   -0.92070      1.99970     5.90584    0.01516     7.92070
      C    2   -0.28600      1.99937     4.26995    0.01669     6.28600
      C    3   -0.30988      1.99930     4.29656    0.01403     6.30988
      N    4   -0.43245      1.99937     5.42197    0.01111     7.43245
      C    5    0.16679      1.99900     3.81494    0.01927     5.83321
      C    6   -0.36755      1.99908     4.34802    0.02045     6.36755
      C    7   -0.34962      1.99914     4.33091    0.01956     6.34962
      C    8   -0.15949      1.99911     4.14594    0.01444     6.15949
      C    9   -0.36621      1.99915     4.34671    0.02035     6.36621
      C   10   -0.33584      1.99908     4.31885    0.01791     6.33584
      H   11    0.39253      0.00000     0.60458    0.00289     0.60747
      H   12    0.38776      0.00000     0.60955    0.00269     0.61224
      H   13    0.24166      0.00000     0.75611    0.00223     0.75834
      H   14    0.24748      0.00000     0.75080    0.00173     0.75252
      H   15    0.25621      0.00000     0.74108    0.00270     0.74379
      H   16    0.26095      0.00000     0.73623    0.00281     0.73905
      H   17    0.42375      0.00000     0.56947    0.00678     0.57625
      H   18    0.22683      0.00000     0.77132    0.00186     0.77317
      H   19    0.22924      0.00000     0.76930    0.00146     0.77076
      H   20    0.23492      0.00000     0.76364    0.00144     0.76508
      H   21    0.22830      0.00000     0.77023    0.00147     0.77170
      H   22    0.23131      0.00000     0.76698    0.00170     0.76869
 =======================================================================
   * Total *    0.00000     19.99229    53.80898    0.19873    74.00000

 1\1\GINC-CN36\SP\RB3LYP TD-FC\6-31G(d,p)\C8H12N2\QDUEZ\11-Jul-2024\0\\
 # TD(NStates=10, Root=1) B3LYP/6-31G** SCRF=(Solvent=water) volume pop
 =NPA density=current Geom=AllCheck Guess=Read\\OCIDXARMXNJACB-UHFFFAOY
 SA-N_conf_0\\0,1\N,0,-3.6080635745,0.6845310129,-0.0781585897\C,0,-2.9
 948747975,-0.64341363,-0.1822797314\C,0,-1.5088924056,-0.6954078252,-0
 .5662755719\N,0,-0.6776867213,-0.0490105028,0.4393073553\C,0,0.7040165
 874,0.0507290823,0.2919650456\C,0,1.4186567397,0.9666935035,1.09418685
 92\C,0,2.803595961,1.059550406,1.0096045801\C,0,3.5230180057,0.2457910

 Normal termination of Gaussian 16 at Thu Jul 11 21:16:28 2024.
