 Gaussian 16, Revision A.03,

 -------------------------------------------------------
 # opt=CalcFc B3LYP/6-31G** SCRF=(Solvent=water) scf=xqc
 -------------------------------------------------------

 ----------------------------------
 OCIDXARMXNJACB-UHFFFAOYSA-N_conf_2
 ----------------------------------
 Symbolic Z-matrix:
 Charge =  0 Multiplicity = 1

 SCF Done:  E(RB3LYP) =  -421.596035291     A.U. after   12 cycles
 SCF Done:  E(RB3LYP) =  -421.597988689     A.U. after   10 cycles
 SCF Done:  E(RB3LYP) =  -421.598057608     A.U. after    9 cycles
 SCF Done:  E(RB3LYP) =  -421.598060695     A.U. after    8 cycles
 SCF Done:  E(RB3LYP) =  -421.598061148     A.U. after    8 cycles
 Optimization completed.
    -- Stationary point found.
 Normal termination of Gaussian 16 at Thu Jul 11 20:52:42 2024.

 ----------------------------------------------------------------------
 # freq B3LYP/6-31G** SCRF=(Solvent=water) volume NMR pop=NPA density=c
 urrent Geom=AllCheck Guess=Read
 ----------------------------------------------------------------------

 Structure from the checkpoint file:  "OCIDXARMXNJACB-UHFFFAOYSA-N_conf_2_1.chk"
 ----------------------------------
 OCIDXARMXNJACB-UHFFFAOYSA-N_conf_2
 ----------------------------------
 Charge =  0 Multiplicity = 1

 SCF Done:  E(RB3LYP) =  -421.598061148     A.U. after    1 cycles

      1  N    Isotropic =   239.3269   Anisotropy =    20.5276

      2  C    Isotropic =   150.1348   Anisotropy =    40.4626

      3  C    Isotropic =   143.7520   Anisotropy =    46.1878

      4  N    Isotropic =   186.3587   Anisotropy =    53.2187

      5  C    Isotropic =    50.2699   Anisotropy =   157.0161

      6  C    Isotropic =    82.7411   Anisotropy =   125.6646

      7  C    Isotropic =    67.8303   Anisotropy =   166.3188

      8  C    Isotropic =    81.4468   Anisotropy =   150.1986

      9  C    Isotropic =    67.6724   Anisotropy =   167.7751

     10  C    Isotropic =    87.9145   Anisotropy =   144.8023

     11  H    Isotropic =    31.3921   Anisotropy =    13.7202

     12  H    Isotropic =    31.4394   Anisotropy =    13.4161

     13  H    Isotropic =    29.4870   Anisotropy =     6.1510

     14  H    Isotropic =    28.9403   Anisotropy =     6.3853

     15  H    Isotropic =    28.5403   Anisotropy =     4.3401

     16  H    Isotropic =    28.9736   Anisotropy =     6.4152

     17  H    Isotropic =    28.3034   Anisotropy =    11.2140

     18  H    Isotropic =    25.3104   Anisotropy =     6.4694

     19  H    Isotropic =    24.5551   Anisotropy =     4.2239

     20  H    Isotropic =    25.1018   Anisotropy =     3.2157

     21  H    Isotropic =    24.4999   Anisotropy =     4.8557

     22  H    Isotropic =    25.0748   Anisotropy =     8.5319

  Exact polarizability: 170.733  12.019 136.443 -22.520  12.568  69.530
 Approx polarizability: 188.699  15.618 167.430 -28.082  14.857  82.938

                      1                      2                      3
                      A                      A                      A
 Frequencies --     50.1667                66.8343               106.5250
 Red. masses --      4.2990                 4.1406                 1.7112
 Frc consts  --      0.0064                 0.0109                 0.0114
 IR Inten    --      1.2641                 0.6224                 3.4091

                      4                      5                      6
                      A                      A                      A
 Frequencies --    205.9604               249.0086               295.8126
 Red. masses --      4.1536                 2.3221                 2.7456
 Frc consts  --      0.1038                 0.0848                 0.1416
 IR Inten    --      1.0049                20.6825                23.7516

                      7                      8                      9
                      A                      A                      A
 Frequencies --    307.2141               350.1913               420.9320
 Red. masses --      1.2441                 2.8013                 3.1181
 Frc consts  --      0.0692                 0.2024                 0.3255
 IR Inten    --     52.5646                 5.2604                 0.8174

                     10                     11                     12
                      A                      A                      A
 Frequencies --    457.6958               514.8441               540.8113
 Red. masses --      1.7554                 3.2373                 3.8335
 Frc consts  --      0.2167                 0.5056                 0.6606
 IR Inten    --    204.2610                 5.8651                15.4184

                     13                     14                     15
                      A                      A                      A
 Frequencies --    603.8792               631.8118               706.9089
 Red. masses --      2.2430                 6.1458                 2.1198
 Frc consts  --      0.4819                 1.4454                 0.6241
 IR Inten    --     27.7160                 1.0354                19.8382

                     16                     17                     18
                      A                      A                      A
 Frequencies --    760.2238               765.8273               822.0345
 Red. masses --      1.6399                 1.3721                 2.6968
 Frc consts  --      0.5584                 0.4741                 1.0737
 IR Inten    --     66.9057                16.7627                 7.4447

                     19                     20                     21
                      A                      A                      A
 Frequencies --    828.8812               876.9107               894.1560
 Red. masses --      1.2560                 1.4845                 1.6716
 Frc consts  --      0.5084                 0.6726                 0.7874
 IR Inten    --      0.3988                14.5216               240.3705

                     22                     23                     24
                      A                      A                      A
 Frequencies --    961.6708               982.3961               998.7167
 Red. masses --      1.3240                 1.2212                 1.4614
 Frc consts  --      0.7214                 0.6944                 0.8588
 IR Inten    --      0.0418                 0.3658                 8.0931

                     25                     26                     27
                      A                      A                      A
 Frequencies --   1002.8194              1035.6279              1050.8678
 Red. masses --      3.6566                 4.0492                 2.3459
 Frc consts  --      2.1666                 2.5588                 1.5264
 IR Inten    --      6.6370                77.3566                 3.4765

                     28                     29                     30
                      A                      A                      A
 Frequencies --   1089.7898              1108.3278              1117.7416
 Red. masses --      2.6469                 2.2386                 1.8328
 Frc consts  --      1.8522                 1.6202                 1.3491
 IR Inten    --     13.3585                11.2240                18.7135

                     31                     32                     33
                      A                      A                      A
 Frequencies --   1178.4998              1199.2780              1206.3067
 Red. masses --      1.0822                 1.3674                 1.1559
 Frc consts  --      0.8855                 1.1587                 0.9910
 IR Inten    --      4.2030                 8.3639                30.8284

                     34                     35                     36
                      A                      A                      A
 Frequencies --   1294.6758              1323.3167              1338.7774
 Red. masses --      2.4007                 1.4202                 1.3385
 Frc consts  --      2.3709                 1.4653                 1.4135
 IR Inten    --    119.2153                69.1506                26.2004

                     37                     38                     39
                      A                      A                      A
 Frequencies --   1365.5790              1370.2730              1391.2639
 Red. masses --      1.3440                 2.9415                 1.1872
 Frc consts  --      1.4767                 3.2541                 1.3540
 IR Inten    --     14.0965                37.6592                 0.3743

                     40                     41                     42
                      A                      A                      A
 Frequencies --   1414.0307              1474.8311              1494.2993
 Red. masses --      1.3368                 1.7184                 1.1315
 Frc consts  --      1.5749                 2.2023                 1.4886
 IR Inten    --      1.3624                16.7435                 1.2334

                     43                     44                     45
                      A                      A                      A
 Frequencies --   1510.3299              1534.7960              1550.4482
 Red. masses --      1.1043                 1.9101                 2.0757
 Frc consts  --      1.4841                 2.6510                 2.9398
 IR Inten    --      2.6475                26.7915               242.7053

                     46                     47                     48
                      A                      A                      A
 Frequencies --   1632.6981              1656.9675              1660.1712
 Red. masses --      4.6733                 5.6305                 1.0890
 Frc consts  --      7.3398                 9.1080                 1.7685
 IR Inten    --     12.7834               229.2309                36.3183

                     49                     50                     51
                      A                      A                      A
 Frequencies --   3038.8362              3045.7308              3075.7475
 Red. masses --      1.0598                 1.0606                 1.1027
 Frc consts  --      5.7664                 5.7966                 6.1461
 IR Inten    --      7.4069               125.3910                 0.7356

                     52                     53                     54
                      A                      A                      A
 Frequencies --   3097.2864              3167.8985              3177.8305
 Red. masses --      1.1077                 1.0866                 1.0870
 Frc consts  --      6.2612                 6.4248                 6.4673
 IR Inten    --     95.1273                21.6539                 3.7860

                     55                     56                     57
                      A                      A                      A
 Frequencies --   3186.0006              3203.7389              3211.4211
 Red. masses --      1.0926                 1.0942                 1.0943
 Frc consts  --      6.5344                 6.6167                 6.6494
 IR Inten    --     47.6507                51.8374                13.9377

                     58                     59                     60
                      A                      A                      A
 Frequencies --   3474.8911              3553.6971              3605.7583
 Red. masses --      1.0499                 1.0920                 1.0761
 Frc consts  --      7.4695                 8.1255                 8.2434
 IR Inten    --      0.7771                 0.0291                27.0086

 - Thermochemistry -
 -------------------
 Temperature   298.150 Kelvin.  Pressure   1.00000 Atm.
 Atom     1 has atomic number  7 and mass  14.00307

 Molecular mass:   136.10005 amu.
 Principal axes and moments of inertia in atomic units:
                           1         2         3
     Eigenvalues --   567.061062690.007593016.70788
           X            0.99998   0.00075  -0.00670
           Y           -0.00053   0.99947   0.03256
           Z            0.00672  -0.03256   0.99945
 This molecule is an asymmetric top.
 Rotational symmetry number  1.
 Warning -- assumption of classical behavior for rotation
           may cause significant error
 Rotational temperatures (Kelvin)      0.15274     0.03220     0.02871
 Rotational constants (GHZ):           3.18262     0.67091     0.59825
 Zero-point vibrational energy     503866.9 (Joules/Mol)
                                  120.42708 (Kcal/Mol)
 Warning -- explicit consideration of  13 degrees of freedom as
           vibrations may cause significant error
 Vibrational temperatures:     72.18    96.16   153.27   296.33   358.27
          (Kelvin)            425.61   442.01   503.85   605.63   658.52
                              740.75   778.11   868.85   909.04  1017.08
                             1093.79  1101.85  1182.72  1192.58  1261.68
                             1286.49  1383.63  1413.45  1436.93  1442.83
                             1490.04  1511.96  1567.96  1594.64  1608.18
                             1695.60  1725.49  1735.61  1862.75  1903.96
                             1926.20  1964.76  1971.52  2001.72  2034.47
                             2121.95  2149.96  2173.03  2208.23  2230.75
                             2349.09  2384.01  2388.62  4372.21  4382.13
                             4425.31  4456.30  4557.90  4572.19  4583.94
                             4609.47  4620.52  4999.59  5112.98  5187.88

 Zero-point correction=                           0.191913 (Hartree/Particle)
 Thermal correction to Energy=                    0.201579
 Thermal correction to Enthalpy=                  0.202523
 Thermal correction to Gibbs Free Energy=         0.156454
 Sum of electronic and zero-point Energies=           -421.406148
 Sum of electronic and thermal Energies=              -421.396482
 Sum of electronic and thermal Enthalpies=            -421.395538
 Sum of electronic and thermal Free Energies=         -421.441607

                     E (Thermal)             CV                S
                      KCal/Mol        Cal/Mol-Kelvin    Cal/Mol-Kelvin
 Total                  126.493             37.047             96.961
 Electronic               0.000              0.000              0.000
 Translational            0.889              2.981             40.637
 Rotational               0.889              2.981             29.910
 Vibrational            124.715             31.085             26.414
 Vibration     1          0.595              1.978              4.811
 Vibration     2          0.598              1.970              4.244
 Vibration     3          0.605              1.944              3.331
 Vibration     4          0.640              1.831              2.079
 Vibration     5          0.662              1.764              1.738
 Vibration     6          0.690              1.682              1.440
 Vibration     7          0.697              1.660              1.377
 Vibration     8          0.727              1.575              1.165
 Vibration     9          0.783              1.425              0.889
 Vibration    10          0.816              1.344              0.773
 Vibration    11          0.870              1.217              0.622
 Vibration    12          0.896              1.160              0.564
 Vibration    13          0.962              1.024              0.443

 Optimization completed.
    -- Stationary point found.
 Normal termination of Gaussian 16 at Thu Jul 11 21:17:03 2024.
 Gaussian 16:  EM64L-G16RevA.03 25-Dec-2016

 ----------------------------------------------------------------------
 # TD(NStates=10, Root=1) B3LYP/6-31G** SCRF=(Solvent=water) volume pop
 =NPA density=current Geom=AllCheck Guess=Read
 ----------------------------------------------------------------------

 Structure from the checkpoint file:  "OCIDXARMXNJACB-UHFFFAOYSA-N_conf_2_2.chk"
 ----------------------------------
 OCIDXARMXNJACB-UHFFFAOYSA-N_conf_2
 ----------------------------------
 Charge =  0 Multiplicity = 1

                         Standard orientation:
 ---------------------------------------------------------------------
 Center     Atomic      Atomic             Coordinates (Angstroms)
 Number     Number       Type             X           Y           Z
 ---------------------------------------------------------------------
      1          7           0       -3.809612    0.762871   -0.513395
      2          6           0       -2.518142    0.082365   -0.653651
      3          6           0       -1.934291   -0.480590    0.658795
      4          7           0       -0.651267   -1.156362    0.522139
      5          6           0        0.539561   -0.495242    0.243554
      6          6           0        1.645857   -1.235472   -0.228710
      7          6           0        2.872060   -0.620330   -0.459236
      8          6           0        3.041201    0.749724   -0.231343
      9          6           0        1.951613    1.489091    0.231757
     10          6           0        0.714883    0.886314    0.466177
     11          1           0       -4.481778    0.124402   -0.090113
     12          1           0       -3.714164    1.531842    0.148419
     13          1           0       -2.634853   -0.740405   -1.369728
     14          1           0       -1.803176    0.784769   -1.096788
     15          1           0       -1.841448    0.325993    1.395729
     16          1           0       -2.640068   -1.202972    1.084377
     17          1           0       -0.713105   -2.079761    0.114168
     18          1           0        1.530468   -2.301686   -0.409096
     19          1           0        3.703207   -1.218436   -0.823376
     20          1           0        3.998313    1.227764   -0.414084
     21          1           0        2.057023    2.555659    0.412352
     22          1           0       -0.110713    1.492102    0.822872
 ---------------------------------------------------------------------

 SCF Done:  E(RB3LYP) =  -421.598061148     A.U. after    1 cycles

 Excitation energies and oscillator strengths:

 Excited State   1:      Singlet-A      4.5239 eV  274.07 nm  f=0.0697  <S**2>=0.000
      35 -> 39        -0.15767
      37 -> 38         0.68855
 This state for optimization and/or second-order correction.
 Total Energy, E(TD-HF/TD-DFT) =  -421.431811517
 Copying the excited state density for this state as the 1-particle RhoCI density.

 Excited State   2:      Singlet-A      5.2379 eV  236.71 nm  f=0.4947  <S**2>=0.000
      35 -> 38         0.10551
      37 -> 39         0.69367

 Excited State   3:      Singlet-A      6.0617 eV  204.54 nm  f=0.0045  <S**2>=0.000
      35 -> 39        -0.29045
      36 -> 38         0.63110

 Excited State   4:      Singlet-A      6.4390 eV  192.55 nm  f=0.2923  <S**2>=0.000
      35 -> 38         0.56208
      36 -> 39         0.33871
      37 -> 40         0.22385

 Excited State   5:      Singlet-A      6.5147 eV  190.31 nm  f=0.0308  <S**2>=0.000
      35 -> 38        -0.14544
      36 -> 39        -0.20944
      37 -> 40         0.62970
      37 -> 41        -0.15937

 Excited State   6:      Singlet-A      6.6264 eV  187.11 nm  f=0.2669  <S**2>=0.000
      34 -> 38         0.24092
      35 -> 39         0.55682
      36 -> 38         0.30769
      37 -> 38         0.11530
      37 -> 41        -0.13024

 Excited State   7:      Singlet-A      6.7111 eV  184.74 nm  f=0.1015  <S**2>=0.000
      35 -> 38        -0.15672
      36 -> 39         0.27796
      37 -> 40         0.19191
      37 -> 41         0.58085

 Excited State   8:      Singlet-A      6.7538 eV  183.58 nm  f=0.2969  <S**2>=0.000
      35 -> 38        -0.33509
      36 -> 39         0.50344
      37 -> 41        -0.31941

 Excited State   9:      Singlet-A      7.1726 eV  172.86 nm  f=0.0016  <S**2>=0.000
      36 -> 40        -0.15635
      37 -> 42         0.68250

 Excited State  10:      Singlet-A      7.5703 eV  163.78 nm  f=0.3735  <S**2>=0.000
      33 -> 38        -0.12300
      34 -> 38         0.63328
      35 -> 39        -0.24002

 The electronic state is 1-A.
 Alpha  occ. eigenvalues --  -14.34174 -14.31417 -10.22709 -10.21284 -10.20430
 Alpha  occ. eigenvalues --  -10.18603 -10.18591 -10.18023 -10.17954 -10.17558
 Alpha  occ. eigenvalues --   -0.93050  -0.87688  -0.83451  -0.74454  -0.73710
 Alpha  occ. eigenvalues --   -0.69417  -0.62169  -0.60454  -0.57847  -0.52751
 Alpha  occ. eigenvalues --   -0.49436  -0.48515  -0.46681  -0.44061  -0.43443
 Alpha  occ. eigenvalues --   -0.41882  -0.41195  -0.39660  -0.38466  -0.36855
 Alpha  occ. eigenvalues --   -0.35163  -0.34038  -0.33256  -0.29989  -0.24722
 Alpha  occ. eigenvalues --   -0.24491  -0.19110
 Alpha virt. eigenvalues --    0.00217   0.01845   0.07984   0.09397   0.10637
 Alpha virt. eigenvalues --    0.12592   0.14537   0.15076   0.16545   0.17055
 Alpha virt. eigenvalues --    0.17093   0.18922   0.19279   0.20098   0.21707

 Mulliken charges:
               1
     1  N   -0.607738
     2  C   -0.058214
     3  C   -0.088871
     4  N   -0.486802
     5  C    0.291512
     6  C   -0.190195
     7  C   -0.171971
     8  C   -0.072243
     9  C   -0.183567
    10  C   -0.162176
    11  H    0.267421
    12  H    0.267413
    13  H    0.128881
    14  H    0.124333
    15  H    0.149722
    16  H    0.144072
    17  H    0.312209
    18  H    0.062980
    19  H    0.059490
    20  H    0.084738
    21  H    0.059518
    22  H    0.069490
 Sum of Mulliken charges =  -0.00000

 Dipole moment (field-independent basis, Debye):
    X=             -6.6184    Y=             -2.4732    Z=              1.6356  Tot=              7.2523
 Quadrupole moment (field-independent basis, Debye-Ang):
   XX=            -57.7806   YY=            -55.0566   ZZ=            -65.2865
   XY=              4.6780   XZ=             -8.4707   YZ=              2.8379

 Summary of Natural Population Analysis:

                                       Natural Population
                Natural  -----------------------------------------------
    Atom  No    Charge         Core      Valence    Rydberg      Total
 -----------------------------------------------------------------------
      N    1   -0.88449      1.99970     5.87027    0.01453     7.88449
      C    2   -0.27828      1.99935     4.26396    0.01497     6.27828
      C    3   -0.30743      1.99931     4.29128    0.01684     6.30743
      N    4   -0.42992      1.99940     5.41967    0.01085     7.42992
      C    5    0.15978      1.99899     3.82155    0.01967     5.84022
      C    6   -0.36439      1.99907     4.34536    0.01996     6.36439
      C    7   -0.36235      1.99914     4.34351    0.01970     6.36235
      C    8   -0.16662      1.99911     4.15325    0.01426     6.16662
      C    9   -0.36620      1.99914     4.34686    0.02020     6.36620
      C   10   -0.36321      1.99907     4.34504    0.01910     6.36321
      H   11    0.39444      0.00000     0.60278    0.00278     0.60556
      H   12    0.39422      0.00000     0.60295    0.00283     0.60578
      H   13    0.23922      0.00000     0.75875    0.00204     0.76078
      H   14    0.24006      0.00000     0.75601    0.00393     0.75994
      H   15    0.25424      0.00000     0.74330    0.00245     0.74576
      H   16    0.26149      0.00000     0.73657    0.00194     0.73851
      H   17    0.44050      0.00000     0.55601    0.00349     0.55950
      H   18    0.22478      0.00000     0.77338    0.00184     0.77522
      H   19    0.22680      0.00000     0.77176    0.00144     0.77320
      H   20    0.23310      0.00000     0.76545    0.00145     0.76690
      H   21    0.22626      0.00000     0.77228    0.00146     0.77374
      H   22    0.22799      0.00000     0.77026    0.00175     0.77201
 =======================================================================
   * Total *    0.00000     19.99228    53.81025    0.19748    74.00000

 1\1\GINC-CN13\SP\RB3LYP TD-FC\6-31G(d,p)\C8H12N2\QDUEZ\11-Jul-2024\0\\
 # TD(NStates=10, Root=1) B3LYP/6-31G** SCRF=(Solvent=water) volume pop
 =NPA density=current Geom=AllCheck Guess=Read\\OCIDXARMXNJACB-UHFFFAOY
 SA-N_conf_2\\0,1\N,0,3.4490393584,1.1145201406,0.7514793123\C,0,2.2430
 028858,0.2804988845,0.7746940112\C,0,1.7937327438,-0.2508684832,-0.602
 3025686\N,0,0.5956773563,-1.0789630345,-0.5818929886\C,0,-0.6775478595
 ,-0.5821289211,-0.3273073032\C,0,-1.7085978881,-1.4776292239,0.0330801
 136\C,0,-3.0091210034,-1.0270027831,0.2348010149\C,0,-3.3298327161,0.3

 Normal termination of Gaussian 16 at Thu Jul 11 21:46:11 2024.
