 Gaussian 16, Revision A.03,

 -------------------------------------------------------
 # opt=CalcFc B3LYP/6-31G** SCRF=(Solvent=water) scf=xqc
 -------------------------------------------------------

 ----------------------------------
 OCIDXARMXNJACB-UHFFFAOYSA-N_conf_1
 ----------------------------------
 Symbolic Z-matrix:
 Charge =  0 Multiplicity = 1

 SCF Done:  E(RB3LYP) =  -421.594035178     A.U. after   12 cycles
 SCF Done:  E(RB3LYP) =  -421.596912040     A.U. after   10 cycles
 SCF Done:  E(RB3LYP) =  -421.597193109     A.U. after   10 cycles
 SCF Done:  E(RB3LYP) =  -421.597214991     A.U. after    9 cycles
 SCF Done:  E(RB3LYP) =  -421.597219030     A.U. after    8 cycles
 SCF Done:  E(RB3LYP) =  -421.597219468     A.U. after    7 cycles
 SCF Done:  E(RB3LYP) =  -421.597219483     A.U. after    7 cycles
 Optimization completed.
    -- Stationary point found.
 Normal termination of Gaussian 16 at Thu Jul 11 20:47:17 2024.

 ----------------------------------------------------------------------
 # freq B3LYP/6-31G** SCRF=(Solvent=water) volume NMR pop=NPA density=c
 urrent Geom=AllCheck Guess=Read
 ----------------------------------------------------------------------

 Structure from the checkpoint file:  "OCIDXARMXNJACB-UHFFFAOYSA-N_conf_1_1.chk"
 ----------------------------------
 OCIDXARMXNJACB-UHFFFAOYSA-N_conf_1
 ----------------------------------
 Charge =  0 Multiplicity = 1

 SCF Done:  E(RB3LYP) =  -421.597219483     A.U. after    1 cycles

      1  N    Isotropic =   237.5996   Anisotropy =    31.0083

      2  C    Isotropic =   149.2336   Anisotropy =    25.5729

      3  C    Isotropic =   144.2827   Anisotropy =    27.0266

      4  N    Isotropic =   193.5395   Anisotropy =    64.7473

      5  C    Isotropic =    49.5167   Anisotropy =   157.7487

      6  C    Isotropic =    88.2115   Anisotropy =   141.9660

      7  C    Isotropic =    67.7109   Anisotropy =   167.7394

      8  C    Isotropic =    81.1747   Anisotropy =   151.0973

      9  C    Isotropic =    68.0377   Anisotropy =   166.1991

     10  C    Isotropic =    82.9082   Anisotropy =   126.1747

     11  H    Isotropic =    31.1701   Anisotropy =    15.7989

     12  H    Isotropic =    30.7754   Anisotropy =    11.2464

     13  H    Isotropic =    28.4759   Anisotropy =     7.8445

     14  H    Isotropic =    29.4609   Anisotropy =     7.9707

     15  H    Isotropic =    28.4225   Anisotropy =     5.3979

     16  H    Isotropic =    28.6213   Anisotropy =     8.6976

     17  H    Isotropic =    28.1114   Anisotropy =    12.3684

     18  H    Isotropic =    25.1038   Anisotropy =     8.5112

     19  H    Isotropic =    24.4921   Anisotropy =     4.8867

     20  H    Isotropic =    25.0538   Anisotropy =     3.2877

     21  H    Isotropic =    24.5308   Anisotropy =     4.2728

     22  H    Isotropic =    25.2387   Anisotropy =     6.6551

  Exact polarizability: 171.794  -3.330 135.977 -16.293  -2.163  68.899
 Approx polarizability: 191.743  -6.694 166.456 -19.726  -2.555  79.232

                      1                      2                      3
                      A                      A                      A
 Frequencies --     51.8512                69.8959               121.2797
 Red. masses --      4.2532                 3.5150                 2.4963
 Frc consts  --      0.0067                 0.0101                 0.0216
 IR Inten    --      0.1399                 4.4800                 4.3249

                      4                      5                      6
                      A                      A                      A
 Frequencies --    178.6867               254.9510               258.4172
 Red. masses --      3.0822                 1.4680                 3.0056
 Frc consts  --      0.0580                 0.0562                 0.1183
 IR Inten    --     15.0275                98.0738                 9.7169

                      7                      8                      9
                      A                      A                      A
 Frequencies --    319.5796               390.4721               422.3309
 Red. masses --      2.4074                 1.2361                 3.1049
 Frc consts  --      0.1449                 0.1110                 0.3263
 IR Inten    --     10.9398               175.5634                 0.4510

                     10                     11                     12
                      A                      A                      A
 Frequencies --    449.1276               512.9211               529.0674
 Red. masses --      2.2428                 2.8759                 2.7954
 Frc consts  --      0.2665                 0.4458                 0.4610
 IR Inten    --      6.8061                12.8557                 8.9120

                     13                     14                     15
                      A                      A                      A
 Frequencies --    600.0595               631.3932               706.7079
 Red. masses --      3.3045                 6.2322                 2.1912
 Frc consts  --      0.7010                 1.4638                 0.6448
 IR Inten    --     28.1591                 1.2221                15.8086

                     16                     17                     18
                      A                      A                      A
 Frequencies --    759.7555               786.5574               828.8348
 Red. masses --      1.6765                 3.1120                 1.2522
 Frc consts  --      0.5702                 1.1344                 0.5068
 IR Inten    --     75.8074                 5.9480                 0.0201

                     19                     20                     21
                      A                      A                      A
 Frequencies --    873.3639               876.5468               895.2147
 Red. masses --      2.3191                 1.4732                 1.8557
 Frc consts  --      1.0422                 0.6669                 0.8762
 IR Inten    --     53.1950                13.3403                 7.2096

                     22                     23                     24
                      A                      A                      A
 Frequencies --    916.4761               961.5360               982.6523
 Red. masses --      1.3918                 1.3232                 1.2208
 Frc consts  --      0.6888                 0.7208                 0.6945
 IR Inten    --    136.9094                 0.0269                 0.3606

                     25                     26                     27
                      A                      A                      A
 Frequencies --   1002.4918              1050.7553              1071.0098
 Red. masses --      5.6528                 2.3629                 2.0632
 Frc consts  --      3.3472                 1.5371                 1.3944
 IR Inten    --      8.4305                 6.5040                19.2798

                     28                     29                     30
                      A                      A                      A
 Frequencies --   1098.0844              1111.6528              1150.1793
 Red. masses --      2.2358                 1.6346                 2.1397
 Frc consts  --      1.5883                 1.1901                 1.6677
 IR Inten    --     27.9395                 8.8428                33.7830

                     31                     32                     33
                      A                      A                      A
 Frequencies --   1178.9051              1186.7714              1206.7861
 Red. masses --      1.0811                 1.3084                 1.1347
 Frc consts  --      0.8853                 1.0857                 0.9736
 IR Inten    --      5.7280                 2.2103                20.4235

                     34                     35                     36
                      A                      A                      A
 Frequencies --   1274.0626              1298.5768              1346.6317
 Red. masses --      1.2728                 2.4399                 1.3647
 Frc consts  --      1.2173                 2.4241                 1.4581
 IR Inten    --      6.7222               125.7072                65.7608

                     37                     38                     39
                      A                      A                      A
 Frequencies --   1362.8662              1372.0931              1401.1013
 Red. masses --      1.3588                 2.6962                 1.3129
 Frc consts  --      1.4870                 2.9906                 1.5185
 IR Inten    --     52.2991                54.6612                32.6595

                     40                     41                     42
                      A                      A                      A
 Frequencies --   1432.2922              1469.2536              1492.0733
 Red. masses --      1.4608                 1.7015                 1.1495
 Frc consts  --      1.7657                 2.1641                 1.5078
 IR Inten    --     15.0619                22.3693                 7.9015

                     43                     44                     45
                      A                      A                      A
 Frequencies --   1515.5317              1535.3741              1548.4503
 Red. masses --      1.0950                 1.8221                 2.2701
 Frc consts  --      1.4818                 2.5308                 3.2069
 IR Inten    --      3.0392                 5.0531               260.1338

                     46                     47                     48
                      A                      A                      A
 Frequencies --   1632.6999              1644.6680              1659.0834
 Red. masses --      4.7532                 1.1748                 4.0752
 Frc consts  --      7.4654                 1.8722                 6.6090
 IR Inten    --     12.6166                61.7361               214.3018

                     49                     50                     51
                      A                      A                      A
 Frequencies --   2975.5979              3028.5120              3061.8548
 Red. masses --      1.0709                 1.0659                 1.0909
 Frc consts  --      5.5865                 5.7601                 6.0256
 IR Inten    --     97.9406                56.9102                91.2740

                     52                     53                     54
                      A                      A                      A
 Frequencies --   3099.4486              3169.0826              3178.4686
 Red. masses --      1.0997                 1.0864                 1.0871
 Frc consts  --      6.2245                 6.4282                 6.4708
 IR Inten    --     51.4297                20.5999                 3.7175

                     55                     56                     57
                      A                      A                      A
 Frequencies --   3186.6582              3204.4628              3214.0362
 Red. masses --      1.0927                 1.0951                 1.0934
 Frc consts  --      6.5379                 6.6254                 6.6546
 IR Inten    --     48.5638                47.2602                14.0892

                     58                     59                     60
                      A                      A                      A
 Frequencies --   3479.0729              3558.5080              3634.4565
 Red. masses --      1.0509                 1.0908                 1.0770
 Frc consts  --      7.4948                 8.1386                 8.3817
 IR Inten    --      2.5372                 0.7325                42.0110

 - Thermochemistry -
 -------------------
 Temperature   298.150 Kelvin.  Pressure   1.00000 Atm.
 Atom     1 has atomic number  7 and mass  14.00307

 Molecular mass:   136.10005 amu.
 Principal axes and moments of inertia in atomic units:
                           1         2         3
     Eigenvalues --   549.214942625.758152886.91311
           X            0.99998   0.00626  -0.00070
           Y           -0.00627   0.99998  -0.00296
           Z            0.00068   0.00296   1.00000
 This molecule is an asymmetric top.
 Rotational symmetry number  1.
 Warning -- assumption of classical behavior for rotation
           may cause significant error
 Rotational temperatures (Kelvin)      0.15770     0.03299     0.03000
 Rotational constants (GHZ):           3.28604     0.68732     0.62515
 Zero-point vibrational energy     503683.1 (Joules/Mol)
                                  120.38314 (Kcal/Mol)
 Warning -- explicit consideration of  13 degrees of freedom as
           vibrations may cause significant error
 Vibrational temperatures:     74.60   100.56   174.49   257.09   366.82
          (Kelvin)            371.80   459.80   561.80   607.64   646.19
                              737.98   761.21   863.35   908.43  1016.80
                             1093.12  1131.68  1192.51  1256.58  1261.16
                             1288.01  1318.60  1383.44  1413.82  1442.36
                             1511.80  1540.94  1579.90  1599.42  1654.85
                             1696.18  1707.50  1736.30  1833.09  1868.36
                             1937.50  1960.86  1974.14  2015.87  2060.75
                             2113.93  2146.76  2180.51  2209.06  2227.87
                             2349.09  2366.31  2387.05  4281.22  4357.35
                             4405.33  4459.42  4559.60  4573.11  4584.89
                             4610.51  4624.28  5005.61  5119.90  5229.17

 Zero-point correction=                           0.191843 (Hartree/Particle)
 Thermal correction to Energy=                    0.201505
 Thermal correction to Enthalpy=                  0.202450
 Thermal correction to Gibbs Free Energy=         0.156502
 Sum of electronic and zero-point Energies=           -421.405377
 Sum of electronic and thermal Energies=              -421.395714
 Sum of electronic and thermal Enthalpies=            -421.394770
 Sum of electronic and thermal Free Energies=         -421.440717

                     E (Thermal)             CV                S
                      KCal/Mol        Cal/Mol-Kelvin    Cal/Mol-Kelvin
 Total                  126.447             37.011             96.704
 Electronic               0.000              0.000              0.000
 Translational            0.889              2.981             40.637
 Rotational               0.889              2.981             29.811
 Vibrational            124.669             31.049             26.257
 Vibration     1          0.596              1.977              4.746
 Vibration     2          0.598              1.968              4.156
 Vibration     3          0.609              1.931              3.080
 Vibration     4          0.629              1.869              2.342
 Vibration     5          0.665              1.754              1.696
 Vibration     6          0.667              1.749              1.672
 Vibration     7          0.706              1.636              1.312
 Vibration     8          0.758              1.491              0.998
 Vibration     9          0.785              1.422              0.884
 Vibration    10          0.808              1.363              0.798
 Vibration    11          0.868              1.221              0.627
 Vibration    12          0.884              1.186              0.589
 Vibration    13          0.958              1.032              0.450

 Optimization completed.
    -- Stationary point found.
 Normal termination of Gaussian 16 at Thu Jul 11 21:00:54 2024.
 Gaussian 16:  EM64L-G16RevA.03 25-Dec-2016

 ----------------------------------------------------------------------
 # TD(NStates=10, Root=1) B3LYP/6-31G** SCRF=(Solvent=water) volume pop
 =NPA density=current Geom=AllCheck Guess=Read
 ----------------------------------------------------------------------

 Structure from the checkpoint file:  "OCIDXARMXNJACB-UHFFFAOYSA-N_conf_1_2.chk"
 ----------------------------------
 OCIDXARMXNJACB-UHFFFAOYSA-N_conf_1
 ----------------------------------
 Charge =  0 Multiplicity = 1

                         Standard orientation:
 ---------------------------------------------------------------------
 Center     Atomic      Atomic             Coordinates (Angstroms)
 Number     Number       Type             X           Y           Z
 ---------------------------------------------------------------------
      1          7           0        3.440988   -0.296749    0.921082
      2          6           0        2.760073    0.711654    0.098767
      3          6           0        1.913740    0.024873   -0.978322
      4          7           0        0.850695   -0.808830   -0.424073
      5          6           0       -0.445301   -0.361748   -0.205321
      6          6           0       -0.781220    1.006999   -0.165164
      7          6           0       -2.096851    1.404652    0.080050
      8          6           0       -3.108074    0.467212    0.294350
      9          6           0       -2.779644   -0.892665    0.259235
     10          6           0       -1.474173   -1.304555    0.013519
     11          1           0        3.936539    0.168724    1.678845
     12          1           0        2.722241   -0.860907    1.373073
     13          1           0        2.121375    1.396822    0.680218
     14          1           0        3.516563    1.329278   -0.400613
     15          1           0        1.499659    0.777592   -1.662211
     16          1           0        2.567510   -0.625812   -1.566857
     17          1           0        0.920498   -1.791365   -0.643777
     18          1           0       -0.018345    1.762037   -0.317209
     19          1           0       -2.327201    2.466536    0.104408
     20          1           0       -4.127802    0.785671    0.486047
     21          1           0       -3.549067   -1.642997    0.420721
     22          1           0       -1.235056   -2.365055   -0.014392
 ---------------------------------------------------------------------

 SCF Done:  E(RB3LYP) =  -421.597219483     A.U. after    1 cycles

 Excitation energies and oscillator strengths:

 Excited State   1:      Singlet-A      4.5981 eV  269.64 nm  f=0.0763  <S**2>=0.000
      35 -> 39         0.16906
      37 -> 38         0.68555
 This state for optimization and/or second-order correction.
 Total Energy, E(TD-HF/TD-DFT) =  -421.428241087
 Copying the excited state density for this state as the 1-particle RhoCI density.

 Excited State   2:      Singlet-A      5.3192 eV  233.09 nm  f=0.4919  <S**2>=0.000
      35 -> 38        -0.12009
      37 -> 39         0.69043

 Excited State   3:      Singlet-A      5.9638 eV  207.90 nm  f=0.0052  <S**2>=0.000
      35 -> 39        -0.10684
      36 -> 38         0.69353

 Excited State   4:      Singlet-A      6.3448 eV  195.41 nm  f=0.0296  <S**2>=0.000
      35 -> 38         0.20935
      36 -> 39         0.65770

 Excited State   5:      Singlet-A      6.4872 eV  191.12 nm  f=0.2679  <S**2>=0.000
      34 -> 38        -0.24189
      35 -> 38        -0.28499
      35 -> 39         0.49230
      36 -> 38         0.11128
      36 -> 39         0.21381
      37 -> 38        -0.11238
      37 -> 40         0.18748

 Excited State   6:      Singlet-A      6.5487 eV  189.33 nm  f=0.5261  <S**2>=0.000
      34 -> 38        -0.16565
      35 -> 38         0.56907
      35 -> 39         0.32317
      36 -> 39        -0.12343

 Excited State   7:      Singlet-A      6.6415 eV  186.68 nm  f=0.0355  <S**2>=0.000
      35 -> 38         0.10936
      35 -> 39        -0.11651
      37 -> 40         0.65054
      37 -> 42         0.18020

 Excited State   8:      Singlet-A      7.0466 eV  175.95 nm  f=0.0159  <S**2>=0.000
      37 -> 41         0.69862

 Excited State   9:      Singlet-A      7.3134 eV  169.53 nm  f=0.0181  <S**2>=0.000
      36 -> 40        -0.13067
      37 -> 40        -0.15968
      37 -> 42         0.65522

 Excited State  10:      Singlet-A      7.4628 eV  166.14 nm  f=0.4988  <S**2>=0.000
      34 -> 38         0.62772
      35 -> 39         0.29643

 The electronic state is 1-A.
 Alpha  occ. eigenvalues --  -14.34242 -14.30826 -10.22742 -10.21467 -10.20338
 Alpha  occ. eigenvalues --  -10.18620 -10.18603 -10.18066 -10.17962 -10.17587
 Alpha  occ. eigenvalues --   -0.93168  -0.87226  -0.83391  -0.74580  -0.73732
 Alpha  occ. eigenvalues --   -0.70025  -0.61450  -0.60528  -0.57251  -0.52588
 Alpha  occ. eigenvalues --   -0.49629  -0.48502  -0.46609  -0.45442  -0.42629
 Alpha  occ. eigenvalues --   -0.42114  -0.41188  -0.39604  -0.37394  -0.36305
 Alpha  occ. eigenvalues --   -0.35818  -0.34942  -0.33260  -0.29386  -0.24747
 Alpha  occ. eigenvalues --   -0.23814  -0.19453
 Alpha virt. eigenvalues --    0.00193   0.01824   0.08635   0.09986   0.10408
 Alpha virt. eigenvalues --    0.12350   0.15106   0.15527   0.16001   0.17133
 Alpha virt. eigenvalues --    0.17512   0.17960   0.18733   0.20246   0.21927

 Mulliken charges:
               1
     1  N   -0.635359
     2  C   -0.050583
     3  C   -0.072210
     4  N   -0.497659
     5  C    0.295591
     6  C   -0.155720
     7  C   -0.181576
     8  C   -0.069733
     9  C   -0.167683
    10  C   -0.186063
    11  H    0.263203
    12  H    0.258390
    13  H    0.105338
    14  H    0.124403
    15  H    0.148148
    16  H    0.146353
    17  H    0.316043
    18  H    0.075844
    19  H    0.063574
    20  H    0.088994
    21  H    0.063747
    22  H    0.066957
 Sum of Mulliken charges =   0.00000

 Dipole moment (field-independent basis, Debye):
    X=              4.8274    Y=             -0.5852    Z=             -0.5714  Tot=              4.8962
 Quadrupole moment (field-independent basis, Debye-Ang):
   XX=            -63.6694   YY=            -56.3788   ZZ=            -59.3025
   XY=              2.4870   XZ=              0.0858   YZ=              1.3256

 Summary of Natural Population Analysis:

                                       Natural Population
                Natural  -----------------------------------------------
    Atom  No    Charge         Core      Valence    Rydberg      Total
 -----------------------------------------------------------------------
      N    1   -0.92429      1.99968     5.90948    0.01513     7.92429
      C    2   -0.27125      1.99934     4.25838    0.01353     6.27125
      C    3   -0.30250      1.99930     4.28640    0.01680     6.30250
      N    4   -0.44283      1.99939     5.43198    0.01145     7.44283
      C    5    0.16806      1.99900     3.81317    0.01977     5.83194
      C    6   -0.35230      1.99907     4.33433    0.01889     6.35230
      C    7   -0.36298      1.99915     4.34349    0.02034     6.36298
      C    8   -0.16045      1.99911     4.14699    0.01435     6.16045
      C    9   -0.35545      1.99914     4.33664    0.01967     6.35545
      C   10   -0.36178      1.99908     4.34257    0.02013     6.36178
      H   11    0.39807      0.00000     0.59955    0.00239     0.60193
      H   12    0.38699      0.00000     0.60992    0.00309     0.61301
      H   13    0.21620      0.00000     0.78006    0.00373     0.78380
      H   14    0.24436      0.00000     0.75375    0.00189     0.75564
      H   15    0.26153      0.00000     0.73539    0.00308     0.73847
      H   16    0.26463      0.00000     0.73290    0.00247     0.73537
      H   17    0.44687      0.00000     0.54973    0.00341     0.55313
      H   18    0.22898      0.00000     0.76904    0.00198     0.77102
      H   19    0.22814      0.00000     0.77039    0.00147     0.77186
      H   20    0.23472      0.00000     0.76384    0.00144     0.76528
      H   21    0.22879      0.00000     0.76975    0.00146     0.77121
      H   22    0.22649      0.00000     0.77161    0.00190     0.77351
 =======================================================================
   * Total *    0.00000     19.99226    53.80938    0.19836    74.00000

 1\1\GINC-CN34\SP\RB3LYP TD-FC\6-31G(d,p)\C8H12N2\QDUEZ\11-Jul-2024\0\\
 # TD(NStates=10, Root=1) B3LYP/6-31G** SCRF=(Solvent=water) volume pop
 =NPA density=current Geom=AllCheck Guess=Read\\OCIDXARMXNJACB-UHFFFAOY
 SA-N_conf_1\\0,1\N,0,-3.3544988939,0.240135665,-0.4416125553\C,0,-2.54
 09903318,-0.0817131149,0.7379384321\C,0,-1.5340759911,-1.1846586167,0.
 3948597305\N,0,-0.5821255166,-0.7876483375,-0.6388179606\C,0,0.6634206
 144,-0.2367247419,-0.3696722995\C,0,0.9975345279,0.311587384,0.8855743
 937\C,0,2.2577687101,0.8734922842,1.0982165424\C,0,3.2136837552,0.9117

 Normal termination of Gaussian 16 at Thu Jul 11 21:18:26 2024.
