 Gaussian 16, Revision A.03,

 -------------------------------------------------------
 # opt=CalcFc B3LYP/6-31G** SCRF=(Solvent=water) scf=xqc
 -------------------------------------------------------

 ----------------------------------
 XFNJVJPLKCPIBV-UHFFFAOYSA-N_conf_1
 ----------------------------------
 Symbolic Z-matrix:
 Charge =  0 Multiplicity = 1

 SCF Done:  E(RB3LYP) =  -229.849353878     A.U. after   11 cycles
 SCF Done:  E(RB3LYP) =  -229.851515427     A.U. after    9 cycles
 SCF Done:  E(RB3LYP) =  -229.851544292     A.U. after    9 cycles
 SCF Done:  E(RB3LYP) =  -229.851547755     A.U. after    8 cycles
 Optimization completed.
    -- Stationary point found.
 Normal termination of Gaussian 16 at Tue Jul  9 18:49:10 2024.

 ----------------------------------------------------------------------
 # freq B3LYP/6-31G** SCRF=(Solvent=water) volume NMR pop=NPA density=c
 urrent Geom=AllCheck Guess=Read
 ----------------------------------------------------------------------

 Structure from the checkpoint file:  "XFNJVJPLKCPIBV-UHFFFAOYSA-N_conf_1_1.chk"
 ----------------------------------
 XFNJVJPLKCPIBV-UHFFFAOYSA-N_conf_1
 ----------------------------------
 Charge =  0 Multiplicity = 1

 SCF Done:  E(RB3LYP) =  -229.851547755     A.U. after    1 cycles

      1  N    Isotropic =   233.4814   Anisotropy =    31.5804

      2  C    Isotropic =   148.5161   Anisotropy =    26.5529

      3  C    Isotropic =   155.6293   Anisotropy =    26.2765

      4  C    Isotropic =   148.7743   Anisotropy =    36.7754

      5  N    Isotropic =   234.3295   Anisotropy =    31.1951

      6  H    Isotropic =    31.7685   Anisotropy =    12.3796

      7  H    Isotropic =    31.1677   Anisotropy =    15.0443

      8  H    Isotropic =    28.6133   Anisotropy =     8.5266

      9  H    Isotropic =    29.2612   Anisotropy =     6.5543

     10  H    Isotropic =    30.2681   Anisotropy =     6.6295

     11  H    Isotropic =    30.4133   Anisotropy =     5.2049

     12  H    Isotropic =    29.4407   Anisotropy =     5.9693

     13  H    Isotropic =    28.2187   Anisotropy =     6.6436

     14  H    Isotropic =    31.7453   Anisotropy =    12.5316

     15  H    Isotropic =    31.1270   Anisotropy =    15.1510

  Exact polarizability:  64.083  -0.003  54.112  -0.997   0.560  58.071
 Approx polarizability:  63.742   0.951  58.497  -1.043   0.635  64.136

                      1                      2                      3
                      A                      A                      A
 Frequencies --     92.3601               130.4997               219.6900
 Red. masses --      2.2815                 2.2650                 1.4748
 Frc consts  --      0.0115                 0.0227                 0.0419
 IR Inten    --     12.8269                12.0650                52.6064

                      4                      5                      6
                      A                      A                      A
 Frequencies --    252.9314               293.6875               366.2158
 Red. masses --      1.0953                 1.4932                 3.2674
 Frc consts  --      0.0413                 0.0759                 0.2582
 IR Inten    --     48.3640                32.0418                13.8909

                      7                      8                      9
                      A                      A                      A
 Frequencies --    510.7651               782.7045               847.9607
 Red. masses --      2.4914                 1.2332                 1.4160
 Frc consts  --      0.3830                 0.4451                 0.5999
 IR Inten    --     21.5526                 6.4951                55.4311

                     10                     11                     12
                      A                      A                      A
 Frequencies --    879.3341               915.0988               960.7083
 Red. masses --      1.7109                 1.5035                 1.6579
 Frc consts  --      0.7794                 0.7418                 0.9016
 IR Inten    --    186.0946                58.5418                51.3964

                     13                     14                     15
                      A                      A                      A
 Frequencies --   1027.4548              1051.4923              1079.9034
 Red. masses --      1.5181                 1.6468                 1.8021
 Frc consts  --      0.9442                 1.0727                 1.2382
 IR Inten    --      6.4824                20.9345                10.0843

                     16                     17                     18
                      A                      A                      A
 Frequencies --   1103.0594              1157.1931              1264.9900
 Red. masses --      2.3080                 1.4599                 1.5167
 Frc consts  --      1.6546                 1.1518                 1.4299
 IR Inten    --     24.9744                25.0389                 2.7778

                     19                     20                     21
                      A                      A                      A
 Frequencies --   1272.6656              1327.9891              1336.9955
 Red. masses --      1.2475                 1.1128                 1.2269
 Frc consts  --      1.1904                 1.1563                 1.2922
 IR Inten    --      4.3797                 2.9856                 3.1255

                     22                     23                     24
                      A                      A                      A
 Frequencies --   1373.8139              1429.1061              1437.5644
 Red. masses --      1.3060                 1.5071                 1.4419
 Frc consts  --      1.4523                 1.8136                 1.7557
 IR Inten    --      5.8650                22.8484                 7.1929

                     25                     26                     27
                      A                      A                      A
 Frequencies --   1491.5076              1520.2037              1529.6675
 Red. masses --      1.0896                 1.0879                 1.0893
 Frc consts  --      1.4281                 1.4813                 1.5018
 IR Inten    --      3.1555                 2.8630                 1.2634

                     28                     29                     30
                      A                      A                      A
 Frequencies --   1654.2712              1656.5746              2963.9830
 Red. masses --      1.0874                 1.0863                 1.0721
 Frc consts  --      1.7533                 1.7563                 5.5492
 IR Inten    --     35.7091                36.1317               129.2949

                     31                     32                     33
                      A                      A                      A
 Frequencies --   2998.5887              3008.8500              3044.3046
 Red. masses --      1.0649                 1.0681                 1.0947
 Frc consts  --      5.6416                 5.6970                 5.9775
 IR Inten    --     81.9797                35.1317                29.7807

                     34                     35                     36
                      A                      A                      A
 Frequencies --   3047.9491              3071.7453              3471.5703
 Red. masses --      1.0891                 1.0988                 1.0511
 Frc consts  --      5.9611                 6.1086                 7.4636
 IR Inten    --     87.6704               123.0920                 2.4154

                     37                     38                     39
                      A                      A                      A
 Frequencies --   3475.2201              3548.6685              3554.3498
 Red. masses --      1.0509                 1.0910                 1.0913
 Frc consts  --      7.4782                 8.0945                 8.1231
 IR Inten    --      1.3718                 0.3691                 0.0739

 - Thermochemistry -
 -------------------
 Temperature   298.150 Kelvin.  Pressure   1.00000 Atm.
 Atom     1 has atomic number  7 and mass  14.00307

 Molecular mass:    74.08440 amu.
 Principal axes and moments of inertia in atomic units:
                           1         2         3
     Eigenvalues --   142.74706 780.28926 836.73864
           X            0.99987  -0.01640  -0.00078
           Y            0.01640   0.99984   0.00641
           Z            0.00068  -0.00642   0.99998
 This molecule is an asymmetric top.
 Rotational symmetry number  1.
 Rotational temperatures (Kelvin)      0.60676     0.11100     0.10351
 Rotational constants (GHZ):          12.64293     2.31291     2.15688
 Zero-point vibrational energy     365768.0 (Joules/Mol)
                                   87.42065 (Kcal/Mol)
 Warning -- explicit consideration of   7 degrees of freedom as
           vibrations may cause significant error
 Vibrational temperatures:    132.89   187.76   316.08   363.91   422.55
          (Kelvin)            526.90   734.88  1126.14  1220.03  1265.17
                             1316.62  1382.24  1478.28  1512.86  1553.74
                             1587.06  1664.94  1820.04  1831.08  1910.68
                             1923.64  1976.61  2056.16  2068.33  2145.95
                             2187.23  2200.85  2380.13  2383.44  4264.51
                             4314.30  4329.06  4380.08  4385.32  4419.56
                             4994.82  5000.07  5105.74  5113.92

 Zero-point correction=                           0.139314 (Hartree/Particle)
 Thermal correction to Energy=                    0.146096
 Thermal correction to Enthalpy=                  0.147040
 Thermal correction to Gibbs Free Energy=         0.109224
 Sum of electronic and zero-point Energies=           -229.712234
 Sum of electronic and thermal Energies=              -229.705452
 Sum of electronic and thermal Enthalpies=            -229.704508
 Sum of electronic and thermal Free Energies=         -229.742324

                     E (Thermal)             CV                S
                      KCal/Mol        Cal/Mol-Kelvin    Cal/Mol-Kelvin
 Total                   91.677             23.229             79.590
 Electronic               0.000              0.000              0.000
 Translational            0.889              2.981             38.824
 Rotational               0.889              2.981             26.036
 Vibrational             89.899             17.267             14.731
 Vibration     1          0.602              1.955              3.609
 Vibration     2          0.612              1.923              2.939
 Vibration     3          0.647              1.811              1.962
 Vibration     4          0.664              1.758              1.710
 Vibration     5          0.688              1.686              1.453
 Vibration     6          0.739              1.542              1.096
 Vibration     7          0.866              1.226              0.632

 Optimization completed.
    -- Stationary point found.
 Normal termination of Gaussian 16 at Tue Jul  9 18:57:05 2024.
 Gaussian 16:  EM64L-G16RevA.03 25-Dec-2016

 ----------------------------------------------------------------------
 # TD(NStates=10, Root=1) B3LYP/6-31G** SCRF=(Solvent=water) volume pop
 =NPA density=current Geom=AllCheck Guess=Read
 ----------------------------------------------------------------------

 Structure from the checkpoint file:  "XFNJVJPLKCPIBV-UHFFFAOYSA-N_conf_1_2.chk"
 ----------------------------------
 XFNJVJPLKCPIBV-UHFFFAOYSA-N_conf_1
 ----------------------------------
 Charge =  0 Multiplicity = 1

                         Standard orientation:
 ---------------------------------------------------------------------
 Center     Atomic      Atomic             Coordinates (Angstroms)
 Number     Number       Type             X           Y           Z
 ---------------------------------------------------------------------
      1          7           0       -1.977144   -0.752563   -0.145237
      2          6           0       -1.401747    0.546970    0.241142
      3          6           0        0.042698    0.692979   -0.247245
      4          6           0        1.018525   -0.313647    0.364868
      5          7           0        2.388672   -0.067623   -0.120234
      6          1           0       -2.071850   -0.778054   -1.159896
      7          1           0       -2.928817   -0.812843    0.212134
      8          1           0       -1.984544    1.407450   -0.128117
      9          1           0       -1.421331    0.607498    1.337048
     10          1           0        0.392630    1.708162   -0.023412
     11          1           0        0.061218    0.596441   -1.343524
     12          1           0        1.022838   -0.189258    1.455847
     13          1           0        0.655831   -1.333069    0.166449
     14          1           0        2.421091   -0.275218   -1.118030
     15          1           0        3.015380   -0.747622    0.307210
 ---------------------------------------------------------------------

 SCF Done:  E(RB3LYP) =  -229.851547755     A.U. after    1 cycles

 Excitation energies and oscillator strengths:

 Excited State   1:      Singlet-A      7.3166 eV  169.46 nm  f=0.0227  <S**2>=0.000
      20 -> 22        -0.27871
      20 -> 23         0.10317
      21 -> 22         0.63602
 This state for optimization and/or second-order correction.
 Total Energy, E(TD-HF/TD-DFT) =  -229.582666992
 Copying the excited state density for this state as the 1-particle RhoCI density.

 Excited State   2:      Singlet-A      7.4334 eV  166.79 nm  f=0.0145  <S**2>=0.000
      20 -> 22         0.14950
      20 -> 23         0.28914
      21 -> 23         0.62530

 Excited State   3:      Singlet-A      8.0906 eV  153.24 nm  f=0.0023  <S**2>=0.000
      20 -> 22         0.61084
      21 -> 22         0.29018
      21 -> 23        -0.11697
      21 -> 25         0.12181

 Excited State   4:      Singlet-A      8.2807 eV  149.73 nm  f=0.0065  <S**2>=0.000
      20 -> 23         0.62420
      21 -> 23        -0.30341

 Excited State   5:      Singlet-A      8.4952 eV  145.95 nm  f=0.0025  <S**2>=0.000
      21 -> 24         0.68289

 Excited State   6:      Singlet-A      8.7924 eV  141.01 nm  f=0.0488  <S**2>=0.000
      20 -> 22        -0.12741
      20 -> 24         0.17680
      20 -> 25        -0.10693
      21 -> 25         0.64482

 Excited State   7:      Singlet-A      8.9267 eV  138.89 nm  f=0.0535  <S**2>=0.000
      20 -> 24         0.58174
      20 -> 25         0.18913
      21 -> 25        -0.13702
      21 -> 26        -0.21974
      21 -> 27         0.21007

 Excited State   8:      Singlet-A      9.2754 eV  133.67 nm  f=0.0408  <S**2>=0.000
      20 -> 24        -0.25696
      20 -> 25         0.57332
      21 -> 25         0.13661
      21 -> 26        -0.14249
      21 -> 27         0.17932
      21 -> 28        -0.12118

 Excited State   9:      Singlet-A      9.5166 eV  130.28 nm  f=0.0115  <S**2>=0.000
      20 -> 24         0.12817
      20 -> 25         0.15306
      21 -> 26         0.62986
      21 -> 27         0.19480

 Excited State  10:      Singlet-A      9.6831 eV  128.04 nm  f=0.0369  <S**2>=0.000
      20 -> 24        -0.16972
      20 -> 25        -0.28573
      20 -> 30        -0.12246
      21 -> 27         0.58272

 The electronic state is 1-A.
 Alpha  occ. eigenvalues --  -14.30864 -14.30708 -10.20237 -10.19725 -10.17446
 Alpha  occ. eigenvalues --   -0.87759  -0.86583  -0.74114  -0.63882  -0.57467
 Alpha  occ. eigenvalues --   -0.48402  -0.47608  -0.44927  -0.42740  -0.42399
 Alpha  occ. eigenvalues --   -0.37121  -0.34472  -0.34068  -0.32657  -0.24431
 Alpha  occ. eigenvalues --   -0.22593
 Alpha virt. eigenvalues --    0.08662   0.09352   0.12642   0.13531   0.16207
 Alpha virt. eigenvalues --    0.16690   0.17788   0.18726   0.19731   0.20826
 Alpha virt. eigenvalues --    0.23448   0.25316   0.25690   0.28312   0.52860

 Mulliken charges:
               1
     1  N   -0.110922
     2  C   -0.062422
     3  C   -0.139812
     4  C   -0.031297
     5  N   -0.593664
     6  H   -0.005126
     7  H   -0.011943
     8  H    0.084615
     9  H    0.076038
    10  H    0.061139
    11  H    0.044902
    12  H    0.098628
    13  H    0.071049
    14  H    0.254258
    15  H    0.264555
 Sum of Mulliken charges =  -0.00000

 Dipole moment (field-independent basis, Debye):
    X=              1.4271    Y=             -1.0916    Z=              0.2374  Tot=              1.8123
 Quadrupole moment (field-independent basis, Debye-Ang):
   XX=            -36.1121   YY=            -35.1539   ZZ=            -34.8455
   XY=             -6.1008   XZ=             -1.5808   YZ=              0.0889

 Summary of Natural Population Analysis:

                                       Natural Population
                Natural  -----------------------------------------------
    Atom  No    Charge         Core      Valence    Rydberg      Total
 -----------------------------------------------------------------------
      N    1   -0.46649      1.99938     5.44318    0.02394     7.46649
      C    2   -0.34255      1.99932     4.32466    0.01857     6.34255
      C    3   -0.49391      1.99931     4.47980    0.01480     6.49391
      C    4   -0.26925      1.99932     4.25514    0.01479     6.26925
      N    5   -0.84855      1.99963     5.83520    0.01372     7.84855
      H    6    0.19134      0.00000     0.72316    0.08550     0.80866
      H    7    0.17993      0.00000     0.73750    0.08257     0.82007
      H    8    0.23260      0.00000     0.73210    0.03530     0.76740
      H    9    0.21078      0.00000     0.76327    0.02595     0.78922
      H   10    0.20843      0.00000     0.77626    0.01531     0.79157
      H   11    0.19823      0.00000     0.77489    0.02688     0.80177
      H   12    0.22417      0.00000     0.76701    0.00883     0.77583
      H   13    0.19967      0.00000     0.78643    0.01390     0.80033
      H   14    0.38039      0.00000     0.61127    0.00834     0.61961
      H   15    0.39496      0.00000     0.59992    0.00512     0.60504
 =======================================================================
   * Total *   -0.00028      9.99696    31.60978    0.39353    42.00028

 1\1\GINC-CN36\SP\RB3LYP TD-FC\6-31G(d,p)\C3H10N2\QDUEZ\09-Jul-2024\0\\
 # TD(NStates=10, Root=1) B3LYP/6-31G** SCRF=(Solvent=water) volume pop
 =NPA density=current Geom=AllCheck Guess=Read\\XFNJVJPLKCPIBV-UHFFFAOY
 SA-N_conf_1\\0,1\N,0,-1.9460637349,-0.7203937935,-0.3263909803\C,0,-1.
 3392698958,0.6089424287,-0.1424770783\C,0,0.1392955044,0.6153872056,-0
 .542558747\C,0,1.0263003861,-0.2915409012,0.3123798249\N,0,2.435102333
 3,-0.18385728,-0.1081375597\H,0,-1.974853825,-0.9301232038,-1.32355489
 74\H,0,-2.9209374455,-0.6827738748,-0.0344416994\H,0,-1.8570738978,1.4

 Normal termination of Gaussian 16 at Tue Jul  9 19:07:23 2024.
