 Gaussian 16, Revision A.03,

 -------------------------------------------------------
 # opt=CalcFc B3LYP/6-31G** SCRF=(Solvent=water) scf=xqc
 -------------------------------------------------------

 ----------------------------------
 XFNJVJPLKCPIBV-UHFFFAOYSA-N_conf_2
 ----------------------------------
 Symbolic Z-matrix:
 Charge =  0 Multiplicity = 1

 SCF Done:  E(RB3LYP) =  -229.850753456     A.U. after   10 cycles
 SCF Done:  E(RB3LYP) =  -229.852695358     A.U. after    9 cycles
 SCF Done:  E(RB3LYP) =  -229.852734501     A.U. after    8 cycles
 SCF Done:  E(RB3LYP) =  -229.852735494     A.U. after    7 cycles
 Optimization completed.
    -- Stationary point found.
 Normal termination of Gaussian 16 at Tue Jul  9 18:59:05 2024.

 ----------------------------------------------------------------------
 # freq B3LYP/6-31G** SCRF=(Solvent=water) volume NMR pop=NPA density=c
 urrent Geom=AllCheck Guess=Read
 ----------------------------------------------------------------------

 Structure from the checkpoint file:  "XFNJVJPLKCPIBV-UHFFFAOYSA-N_conf_2_1.chk"
 ----------------------------------
 XFNJVJPLKCPIBV-UHFFFAOYSA-N_conf_2
 ----------------------------------
 Charge =  0 Multiplicity = 1

 SCF Done:  E(RB3LYP) =  -229.852735494     A.U. after    1 cycles

      1  N    Isotropic =   237.6458   Anisotropy =    35.8121

      2  C    Isotropic =   153.2182   Anisotropy =    39.9891

      3  C    Isotropic =   155.6130   Anisotropy =    15.8577

      4  C    Isotropic =   152.4750   Anisotropy =    38.5249

      5  N    Isotropic =   241.6010   Anisotropy =    46.4850

      6  H    Isotropic =    31.8919   Anisotropy =    13.2811

      7  H    Isotropic =    31.1891   Anisotropy =    15.2928

      8  H    Isotropic =    28.9170   Anisotropy =     5.8046

      9  H    Isotropic =    28.8962   Anisotropy =     9.1417

     10  H    Isotropic =    30.5865   Anisotropy =     7.8456

     11  H    Isotropic =    30.3712   Anisotropy =     7.8220

     12  H    Isotropic =    28.6624   Anisotropy =     6.5145

     13  H    Isotropic =    29.3245   Anisotropy =     8.6146

     14  H    Isotropic =    32.0480   Anisotropy =    14.0877

     15  H    Isotropic =    30.7998   Anisotropy =    12.2704

  Exact polarizability:  60.242  -2.526  58.007  -2.653  -1.937  58.242
 Approx polarizability:  61.902  -2.309  63.220  -3.453  -2.026  63.332

                      1                      2                      3
                      A                      A                      A
 Frequencies --     56.6267               177.0880               245.9041
 Red. masses --      2.8524                 1.5592                 1.5896
 Frc consts  --      0.0054                 0.0288                 0.0566
 IR Inten    --      3.7710                13.7533                23.0218

                      4                      5                      6
                      A                      A                      A
 Frequencies --    271.0998               317.5310               406.6812
 Red. masses --      1.5395                 1.1955                 1.9460
 Frc consts  --      0.0667                 0.0710                 0.1896
 IR Inten    --     24.0175                95.6591                 9.1079

                      7                      8                      9
                      A                      A                      A
 Frequencies --    528.1332               761.2804               811.5765
 Red. masses --      2.1333                 1.3332                 2.4515
 Frc consts  --      0.3506                 0.4552                 0.9514
 IR Inten    --      7.1876                24.7049                22.9376

                     10                     11                     12
                      A                      A                      A
 Frequencies --    882.1342               920.7553               935.7919
 Red. masses --      1.4699                 1.9941                 1.3044
 Frc consts  --      0.6739                 0.9961                 0.6730
 IR Inten    --    191.8567               163.1480                34.6864

                     13                     14                     15
                      A                      A                      A
 Frequencies --   1016.8720              1032.9010              1062.1116
 Red. masses --      1.4104                 1.8500                 1.6248
 Frc consts  --      0.8593                 1.1629                 1.0799
 IR Inten    --     58.9798                26.0235                 9.5939

                     16                     17                     18
                      A                      A                      A
 Frequencies --   1116.1086              1157.0441              1212.7942
 Red. masses --      2.0340                 1.5662                 1.4381
 Frc consts  --      1.4928                 1.2353                 1.2463
 IR Inten    --      9.2841                 2.8797                21.5108

                     19                     20                     21
                      A                      A                      A
 Frequencies --   1314.1481              1321.8399              1384.0521
 Red. masses --      1.1566                 1.3284                 1.3495
 Frc consts  --      1.1768                 1.3676                 1.5231
 IR Inten    --      1.3259                 6.9469                 0.8571

                     22                     23                     24
                      A                      A                      A
 Frequencies --   1388.6639              1405.2415              1434.0943
 Red. masses --      1.2712                 1.2448                 1.4358
 Frc consts  --      1.4442                 1.4483                 1.7398
 IR Inten    --     20.0020                 4.8756                12.5899

                     25                     26                     27
                      A                      A                      A
 Frequencies --   1483.6305              1494.2131              1525.4956
 Red. masses --      1.0894                 1.0950                 1.0844
 Frc consts  --      1.4128                 1.4405                 1.4869
 IR Inten    --      4.3748                 3.0152                 6.3134

                     28                     29                     30
                      A                      A                      A
 Frequencies --   1653.8607              1656.9894              2967.4239
 Red. masses --      1.0878                 1.0882                 1.0727
 Frc consts  --      1.7531                 1.7603                 5.5653
 IR Inten    --     35.4951                31.0111               117.1196

                     31                     32                     33
                      A                      A                      A
 Frequencies --   3013.2212              3040.9963              3046.2576
 Red. masses --      1.0624                 1.0661                 1.0924
 Frc consts  --      5.6833                 5.8088                 5.9724
 IR Inten    --     50.1663                81.4278                17.0465

                     34                     35                     36
                      A                      A                      A
 Frequencies --   3057.8205              3095.5335              3474.9283
 Red. masses --      1.0965                 1.1000                 1.0504
 Frc consts  --      6.0408                 6.2105                 7.4727
 IR Inten    --    119.0744                64.2754                 1.6695

                     37                     38                     39
                      A                      A                      A
 Frequencies --   3477.7401              3556.8596              3557.6057
 Red. masses --      1.0509                 1.0912                 1.0914
 Frc consts  --      7.4890                 8.1337                 8.1387
 IR Inten    --      1.1155                 0.0560                 0.0033

 - Thermochemistry -
 -------------------
 Temperature   298.150 Kelvin.  Pressure   1.00000 Atm.
 Atom     1 has atomic number  7 and mass  14.00307

 Molecular mass:    74.08440 amu.
 Principal axes and moments of inertia in atomic units:
                           1         2         3
     Eigenvalues --   218.90025 611.31631 666.98716
           X            0.99995  -0.01016   0.00022
           Y            0.01016   0.99802  -0.06210
           Z            0.00041   0.06210   0.99807
 This molecule is an asymmetric top.
 Rotational symmetry number  1.
 Rotational temperatures (Kelvin)      0.39568     0.14168     0.12986
 Rotational constants (GHZ):           8.24458     2.95222     2.70581
 Zero-point vibrational energy     366434.4 (Joules/Mol)
                                   87.57993 (Kcal/Mol)
 Warning -- explicit consideration of   7 degrees of freedom as
           vibrations may cause significant error
 Vibrational temperatures:     81.47   254.79   353.80   390.05   456.86
          (Kelvin)            585.12   759.87  1095.31  1167.68  1269.19
                             1324.76  1346.40  1463.05  1486.11  1528.14
                             1605.83  1664.73  1744.94  1890.77  1901.83
                             1991.34  1997.98  2021.83  2063.34  2134.61
                             2149.84  2194.85  2379.54  2384.04  4269.46
                             4335.35  4375.32  4382.89  4399.52  4453.78
                             4999.65  5003.69  5117.53  5118.60

 Zero-point correction=                           0.139567 (Hartree/Particle)
 Thermal correction to Energy=                    0.146220
 Thermal correction to Enthalpy=                  0.147164
 Thermal correction to Gibbs Free Energy=         0.109464
 Sum of electronic and zero-point Energies=           -229.713168
 Sum of electronic and thermal Energies=              -229.706516
 Sum of electronic and thermal Enthalpies=            -229.705572
 Sum of electronic and thermal Free Energies=         -229.743271

                     E (Thermal)             CV                S
                      KCal/Mol        Cal/Mol-Kelvin    Cal/Mol-Kelvin
 Total                   91.754             23.109             79.346
 Electronic               0.000              0.000              0.000
 Translational            0.889              2.981             38.824
 Rotational               0.889              2.981             25.993
 Vibrational             89.977             17.147             14.529
 Vibration     1          0.596              1.975              4.571
 Vibration     2          0.628              1.871              2.359
 Vibration     3          0.660              1.770              1.760
 Vibration     4          0.675              1.726              1.589
 Vibration     5          0.704              1.640              1.323
 Vibration     6          0.771              1.456              0.938
 Vibration     7          0.883              1.188              0.591

 Optimization completed.
    -- Stationary point found.
 Normal termination of Gaussian 16 at Tue Jul  9 19:10:01 2024.
 Gaussian 16:  EM64L-G16RevA.03 25-Dec-2016

 ----------------------------------------------------------------------
 # TD(NStates=10, Root=1) B3LYP/6-31G** SCRF=(Solvent=water) volume pop
 =NPA density=current Geom=AllCheck Guess=Read
 ----------------------------------------------------------------------

 Structure from the checkpoint file:  "XFNJVJPLKCPIBV-UHFFFAOYSA-N_conf_2_2.chk"
 ----------------------------------
 XFNJVJPLKCPIBV-UHFFFAOYSA-N_conf_2
 ----------------------------------
 Charge =  0 Multiplicity = 1

                         Standard orientation:
 ---------------------------------------------------------------------
 Center     Atomic      Atomic             Coordinates (Angstroms)
 Number     Number       Type             X           Y           Z
 ---------------------------------------------------------------------
      1          7           0        1.745317   -0.647116   -0.435287
      2          6           0        1.120264    0.156863    0.626905
      3          6           0       -0.020513    1.019649    0.077471
      4          6           0       -1.153677    0.233084   -0.604480
      5          7           0       -1.866549   -0.745073    0.230467
      6          1           0        2.209106   -0.020695   -1.092037
      7          1           0        2.490219   -1.211713   -0.031621
      8          1           0        0.721965   -0.536290    1.378573
      9          1           0        1.830122    0.811818    1.159037
     10          1           0       -0.434913    1.612841    0.904280
     11          1           0        0.389259    1.742531   -0.643105
     12          1           0       -0.748235   -0.303814   -1.467985
     13          1           0       -1.891394    0.946424   -0.992581
     14          1           0       -2.181670   -0.289290    1.086300
     15          1           0       -1.212282   -1.464064    0.533501
 ---------------------------------------------------------------------

 SCF Done:  E(RB3LYP) =  -229.852735494     A.U. after    1 cycles

 Excitation energies and oscillator strengths:

 Excited State   1:      Singlet-A      7.1479 eV  173.45 nm  f=0.0191  <S**2>=0.000
      20 -> 22         0.11273
      20 -> 23         0.14317
      21 -> 22         0.67983
 This state for optimization and/or second-order correction.
 Total Energy, E(TD-HF/TD-DFT) =  -229.590053411
 Copying the excited state density for this state as the 1-particle RhoCI density.

 Excited State   2:      Singlet-A      7.3569 eV  168.53 nm  f=0.0122  <S**2>=0.000
      20 -> 22         0.65874
      21 -> 22        -0.10359
      21 -> 23         0.22145

 Excited State   3:      Singlet-A      8.2299 eV  150.65 nm  f=0.0246  <S**2>=0.000
      20 -> 22        -0.20661
      20 -> 23         0.21953
      21 -> 23         0.63175

 Excited State   4:      Singlet-A      8.4513 eV  146.70 nm  f=0.0203  <S**2>=0.000
      20 -> 23         0.64313
      21 -> 22        -0.15302
      21 -> 23        -0.20647

 Excited State   5:      Singlet-A      8.6271 eV  143.72 nm  f=0.0507  <S**2>=0.000
      20 -> 24        -0.15471
      20 -> 26         0.11778
      21 -> 24         0.65715

 Excited State   6:      Singlet-A      8.8547 eV  140.02 nm  f=0.0241  <S**2>=0.000
      20 -> 24         0.56420
      21 -> 24         0.15523
      21 -> 25         0.28282
      21 -> 26         0.21908

 Excited State   7:      Singlet-A      9.0926 eV  136.36 nm  f=0.0504  <S**2>=0.000
      20 -> 24        -0.28562
      21 -> 25         0.62549
      21 -> 26        -0.10224

 Excited State   8:      Singlet-A      9.2821 eV  133.57 nm  f=0.0285  <S**2>=0.000
      20 -> 25         0.60350
      20 -> 26         0.10894
      21 -> 24        -0.13176
      21 -> 26         0.17615
      21 -> 27        -0.20391

 Excited State   9:      Singlet-A      9.3787 eV  132.20 nm  f=0.0566  <S**2>=0.000
      20 -> 24        -0.22729
      20 -> 25        -0.24562
      20 -> 26         0.22742
      21 -> 26         0.56805

 Excited State  10:      Singlet-A      9.6272 eV  128.79 nm  f=0.0842  <S**2>=0.000
      20 -> 25        -0.12814
      20 -> 26         0.57415
      21 -> 24        -0.12257
      21 -> 26        -0.25350
      21 -> 27        -0.21313

 The electronic state is 1-A.
 Alpha  occ. eigenvalues --  -14.30912 -14.30805 -10.20146 -10.19771 -10.17376
 Alpha  occ. eigenvalues --   -0.88002  -0.86427  -0.73734  -0.64733  -0.57006
 Alpha  occ. eigenvalues --   -0.49203  -0.47444  -0.44971  -0.43303  -0.40069
 Alpha  occ. eigenvalues --   -0.38141  -0.36036  -0.33516  -0.32379  -0.23985
 Alpha  occ. eigenvalues --   -0.23060
 Alpha virt. eigenvalues --    0.07446   0.11008   0.12667   0.14251   0.15182
 Alpha virt. eigenvalues --    0.16550   0.17463   0.19051   0.20184   0.21610
 Alpha virt. eigenvalues --    0.23744   0.24373   0.24932   0.30031   0.53725

 Mulliken charges:
               1
     1  N   -0.315873
     2  C   -0.030905
     3  C   -0.164170
     4  C   -0.063850
     5  N   -0.382585
     6  H    0.138792
     7  H    0.127540
     8  H    0.020850
     9  H    0.089629
    10  H    0.065258
    11  H    0.087433
    12  H    0.093560
    13  H    0.103721
    14  H    0.144188
    15  H    0.086411
 Sum of Mulliken charges =  -0.00000

 Dipole moment (field-independent basis, Debye):
    X=              1.6925    Y=              1.3567    Z=              0.0619  Tot=              2.1700
 Quadrupole moment (field-independent basis, Debye-Ang):
   XX=            -35.2417   YY=            -36.3145   ZZ=            -34.0888
   XY=             -1.9021   XZ=             -0.7286   YZ=             -0.4009

 Summary of Natural Population Analysis:

                                       Natural Population
                Natural  -----------------------------------------------
    Atom  No    Charge         Core      Valence    Rydberg      Total
 -----------------------------------------------------------------------
      N    1   -0.60646      1.99948     5.59055    0.01643     7.60646
      C    2   -0.33000      1.99932     4.30989    0.02079     6.33000
      C    3   -0.48325      1.99930     4.47173    0.01223     6.48325
      C    4   -0.30642      1.99935     4.28738    0.01969     6.30642
      N    5   -0.71128      1.99955     5.69411    0.01762     7.71128
      H    6    0.29665      0.00000     0.65185    0.05150     0.70335
      H    7    0.28103      0.00000     0.66510    0.05388     0.71897
      H    8    0.16768      0.00000     0.79029    0.04203     0.83232
      H    9    0.23126      0.00000     0.74467    0.02407     0.76874
      H   10    0.20943      0.00000     0.77176    0.01881     0.79057
      H   11    0.23017      0.00000     0.75550    0.01433     0.76983
      H   12    0.22253      0.00000     0.76390    0.01357     0.77747
      H   13    0.23347      0.00000     0.75722    0.00931     0.76653
      H   14    0.30755      0.00000     0.65035    0.04209     0.69245
      H   15    0.25766      0.00000     0.68654    0.05581     0.74234
 =======================================================================
   * Total *   -0.00000      9.99699    31.59084    0.41217    42.00000

 1\1\GINC-CN33\SP\RB3LYP TD-FC\6-31G(d,p)\C3H10N2\QDUEZ\09-Jul-2024\0\\
 # TD(NStates=10, Root=1) B3LYP/6-31G** SCRF=(Solvent=water) volume pop
 =NPA density=current Geom=AllCheck Guess=Read\\XFNJVJPLKCPIBV-UHFFFAOY
 SA-N_conf_2\\0,1\N,0,1.7910764392,0.3918716922,0.4754809108\C,0,0.7537
 680912,0.8086577017,-0.4813923\C,0,-0.1654424537,-0.359246753,-0.85381
 73774\C,0,-0.8969516511,-1.008845475,0.3339189637\N,0,-1.7889854323,-0
 .1353836178,1.1107418833\H,0,2.4144694701,-0.2711483795,0.016560054\H,
 0,2.3746910905,1.1939283736,0.7050351671\H,0,0.1609323793,1.6003213644

 Normal termination of Gaussian 16 at Tue Jul  9 19:24:59 2024.
