 Gaussian 16, Revision A.03,

 -------------------------------------------------------
 # opt=CalcFc B3LYP/6-31G** SCRF=(Solvent=water) scf=xqc
 -------------------------------------------------------

 ----------------------------------
 XFNJVJPLKCPIBV-UHFFFAOYSA-N_conf_0
 ----------------------------------
 Symbolic Z-matrix:
 Charge =  0 Multiplicity = 1

 SCF Done:  E(RB3LYP) =  -229.850435445     A.U. after   10 cycles
 SCF Done:  E(RB3LYP) =  -229.852939343     A.U. after    9 cycles
 SCF Done:  E(RB3LYP) =  -229.852969951     A.U. after    8 cycles
 SCF Done:  E(RB3LYP) =  -229.852970358     A.U. after    7 cycles
 Optimization completed.
    -- Stationary point found.
 Normal termination of Gaussian 16 at Tue Jul  9 18:54:36 2024.

 ----------------------------------------------------------------------
 # freq B3LYP/6-31G** SCRF=(Solvent=water) volume NMR pop=NPA density=c
 urrent Geom=AllCheck Guess=Read
 ----------------------------------------------------------------------

 Structure from the checkpoint file:  "XFNJVJPLKCPIBV-UHFFFAOYSA-N_conf_0_1.chk"
 ----------------------------------
 XFNJVJPLKCPIBV-UHFFFAOYSA-N_conf_0
 ----------------------------------
 Charge =  0 Multiplicity = 1

 SCF Done:  E(RB3LYP) =  -229.852970358     A.U. after    1 cycles

      1  N    Isotropic =   233.4272   Anisotropy =    32.2749

      2  C    Isotropic =   149.0863   Anisotropy =    35.0643

      3  C    Isotropic =   149.7770   Anisotropy =    42.4329

      4  C    Isotropic =   148.6404   Anisotropy =    36.6946

      5  N    Isotropic =   231.2940   Anisotropy =    25.7857

      6  H    Isotropic =    31.6325   Anisotropy =    12.2885

      7  H    Isotropic =    31.0869   Anisotropy =    15.2041

      8  H    Isotropic =    29.3840   Anisotropy =     5.6914

      9  H    Isotropic =    28.9383   Anisotropy =     6.5014

     10  H    Isotropic =    30.4589   Anisotropy =     3.8414

     11  H    Isotropic =    30.2941   Anisotropy =     4.1228

     12  H    Isotropic =    29.3090   Anisotropy =     6.0595

     13  H    Isotropic =    29.3267   Anisotropy =     6.2455

     14  H    Isotropic =    31.3965   Anisotropy =    12.5357

     15  H    Isotropic =    31.4381   Anisotropy =    12.6173

  Exact polarizability:  64.004   2.293  56.812   0.382  -1.822  55.425
 Approx polarizability:  63.708   1.962  61.580  -0.132  -2.095  61.858

                      1                      2                      3
                      A                      A                      A
 Frequencies --    113.0202               119.4657               184.1174
 Red. masses --      2.6146                 1.7479                 2.9533
 Frc consts  --      0.0197                 0.0147                 0.0590
 IR Inten    --      6.4199                10.4905                 2.7123

                      4                      5                      6
                      A                      A                      A
 Frequencies --    263.8381               300.0616               404.7658
 Red. masses --      1.1508                 1.1117                 4.1001
 Frc consts  --      0.0472                 0.0590                 0.3958
 IR Inten    --     73.3589                75.2865                 6.3515

                      7                      8                      9
                      A                      A                      A
 Frequencies --    448.8582               758.2256               840.8114
 Red. masses --      2.7254                 1.0772                 1.1608
 Frc consts  --      0.3235                 0.3649                 0.4835
 IR Inten    --      4.4180                 4.5310                38.1473

                     10                     11                     12
                      A                      A                      A
 Frequencies --    900.5271               918.3068               980.2375
 Red. masses --      1.6105                 1.3962                 2.4642
 Frc consts  --      0.7695                 0.6937                 1.3950
 IR Inten    --    278.8513                91.8221                 3.2079

                     13                     14                     15
                      A                      A                      A
 Frequencies --   1031.9304              1052.6670              1081.0190
 Red. masses --      1.5042                 2.0991                 1.9298
 Frc consts  --      0.9437                 1.3705                 1.3287
 IR Inten    --      9.6386                56.4954                 8.7731

                     16                     17                     18
                      A                      A                      A
 Frequencies --   1102.3725              1164.5681              1254.3456
 Red. masses --      2.3769                 1.5636                 1.4597
 Frc consts  --      1.7019                 1.2494                 1.3531
 IR Inten    --     12.8966                29.2337                 5.7929

                     19                     20                     21
                      A                      A                      A
 Frequencies --   1299.5780              1327.4288              1345.9556
 Red. masses --      1.3172                 1.1057                 1.2347
 Frc consts  --      1.3107                 1.1479                 1.3179
 IR Inten    --      4.9610                 2.7009                 0.7443

                     22                     23                     24
                      A                      A                      A
 Frequencies --   1397.5340              1404.1083              1437.3507
 Red. masses --      1.1754                 1.3636                 1.4693
 Frc consts  --      1.3525                 1.5839                 1.7885
 IR Inten    --      0.0521                11.1489                20.3607

                     25                     26                     27
                      A                      A                      A
 Frequencies --   1488.5404              1506.6673              1527.2273
 Red. masses --      1.0842                 1.0888                 1.0914
 Frc consts  --      1.4154                 1.4563                 1.4998
 IR Inten    --      0.3993                 0.7195                 1.3226

                     28                     29                     30
                      A                      A                      A
 Frequencies --   1656.0680              1660.9557              2955.0651
 Red. masses --      1.0868                 1.0867                 1.0722
 Frc consts  --      1.7562                 1.7664                 5.5163
 IR Inten    --     35.2878                31.6632               116.9035

                     31                     32                     33
                      A                      A                      A
 Frequencies --   3011.4249              3027.0468              3043.9496
 Red. masses --      1.0626                 1.0600                 1.0881
 Frc consts  --      5.6774                 5.7226                 5.9404
 IR Inten    --     29.3318                81.0238                47.8664

                     34                     35                     36
                      A                      A                      A
 Frequencies --   3054.6396              3074.8239              3470.0715
 Red. masses --      1.0998                 1.1061                 1.0502
 Frc consts  --      6.0460                 6.1617                 7.4508
 IR Inten    --     11.9098               164.7694                 1.5211

                     37                     38                     39
                      A                      A                      A
 Frequencies --   3474.5851              3546.8568              3551.7731
 Red. masses --      1.0509                 1.0914                 1.0913
 Frc consts  --      7.4752                 8.0897                 8.1115
 IR Inten    --      2.1360                 0.1917                 0.3004

 - Thermochemistry -
 -------------------
 Temperature   298.150 Kelvin.  Pressure   1.00000 Atm.
 Atom     1 has atomic number  7 and mass  14.00307

 Molecular mass:    74.08440 amu.
 Principal axes and moments of inertia in atomic units:
                           1         2         3
     Eigenvalues --    95.18564 926.68028 974.02069
           X            0.99991   0.01124   0.00692
           Y           -0.01097   0.99922  -0.03789
           Z           -0.00734   0.03782   0.99926
 This molecule is an asymmetric top.
 Rotational symmetry number  1.
 Rotational temperatures (Kelvin)      0.90995     0.09347     0.08892
 Rotational constants (GHZ):          18.96022     1.94753     1.85288
 Zero-point vibrational energy     365942.4 (Joules/Mol)
                                   87.46233 (Kcal/Mol)
 Warning -- explicit consideration of   7 degrees of freedom as
           vibrations may cause significant error
 Vibrational temperatures:    162.61   171.88   264.90   379.60   431.72
          (Kelvin)            582.37   645.81  1090.92  1209.74  1295.66
                             1321.24  1410.34  1484.72  1514.55  1555.35
                             1586.07  1675.55  1804.72  1869.80  1909.87
                             1936.53  2010.74  2020.20  2068.03  2141.68
                             2167.76  2197.34  2382.71  2389.74  4251.68
                             4332.77  4355.25  4379.56  4394.95  4423.99
                             4992.66  4999.15  5103.14  5110.21

 Zero-point correction=                           0.139380 (Hartree/Particle)
 Thermal correction to Energy=                    0.146184
 Thermal correction to Enthalpy=                  0.147129
 Thermal correction to Gibbs Free Energy=         0.109347
 Sum of electronic and zero-point Energies=           -229.713590
 Sum of electronic and thermal Energies=              -229.706786
 Sum of electronic and thermal Enthalpies=            -229.705842
 Sum of electronic and thermal Free Energies=         -229.743623

                     E (Thermal)             CV                S
                      KCal/Mol        Cal/Mol-Kelvin    Cal/Mol-Kelvin
 Total                   91.732             23.275             79.518
 Electronic               0.000              0.000              0.000
 Translational            0.889              2.981             38.824
 Rotational               0.889              2.981             25.955
 Vibrational             89.955             17.314             14.740
 Vibration     1          0.607              1.939              3.216
 Vibration     2          0.609              1.933              3.109
 Vibration     3          0.631              1.861              2.286
 Vibration     4          0.670              1.739              1.636
 Vibration     5          0.693              1.674              1.417
 Vibration     6          0.770              1.460              0.945
 Vibration     7          0.808              1.363              0.799

 Optimization completed.
    -- Stationary point found.
 Normal termination of Gaussian 16 at Tue Jul  9 19:05:32 2024.
 Gaussian 16:  EM64L-G16RevA.03 25-Dec-2016

 ----------------------------------------------------------------------
 # TD(NStates=10, Root=1) B3LYP/6-31G** SCRF=(Solvent=water) volume pop
 =NPA density=current Geom=AllCheck Guess=Read
 ----------------------------------------------------------------------

 Structure from the checkpoint file:  "XFNJVJPLKCPIBV-UHFFFAOYSA-N_conf_0_2.chk"
 ----------------------------------
 XFNJVJPLKCPIBV-UHFFFAOYSA-N_conf_0
 ----------------------------------
 Charge =  0 Multiplicity = 1

                         Standard orientation:
 ---------------------------------------------------------------------
 Center     Atomic      Atomic             Coordinates (Angstroms)
 Number     Number       Type             X           Y           Z
 ---------------------------------------------------------------------
      1          7           0        2.464696   -0.373079   -0.100884
      2          6           0        1.277877    0.489852    0.017295
      3          6           0       -0.007338   -0.338060   -0.042330
      4          6           0       -1.281733    0.514388    0.038313
      5          7           0       -2.550865   -0.226989   -0.005133
      6          1           0        2.520901   -0.964739    0.727312
      7          1           0        3.300877    0.207608   -0.066654
      8          1           0        1.293102    1.196358   -0.822569
      9          1           0        1.269789    1.100745    0.936895
     10          1           0       -0.010479   -1.063518    0.784668
     11          1           0       -0.013034   -0.922536   -0.971892
     12          1           0       -1.269602    1.103965    0.964113
     13          1           0       -1.288027    1.238541   -0.786737
     14          1           0       -2.574221   -0.786194   -0.857193
     15          1           0       -2.558965   -0.906834    0.754503
 ---------------------------------------------------------------------

 SCF Done:  E(RB3LYP) =  -229.852970358     A.U. after    1 cycles

 Excitation energies and oscillator strengths:

 Excited State   1:      Singlet-A      7.4587 eV  166.23 nm  f=0.0293  <S**2>=0.000
      20 -> 23         0.35441
      21 -> 22         0.59811
 This state for optimization and/or second-order correction.
 Total Energy, E(TD-HF/TD-DFT) =  -229.578866843
 Copying the excited state density for this state as the 1-particle RhoCI density.

 Excited State   2:      Singlet-A      7.4810 eV  165.73 nm  f=0.0077  <S**2>=0.000
      20 -> 22         0.40047
      20 -> 23         0.12930
      21 -> 23         0.56111

 Excited State   3:      Singlet-A      8.1326 eV  152.45 nm  f=0.0022  <S**2>=0.000
      20 -> 22         0.47372
      20 -> 23        -0.32342
      21 -> 22         0.28953
      21 -> 23        -0.24350
      21 -> 24         0.12829

 Excited State   4:      Singlet-A      8.1893 eV  151.40 nm  f=0.0266  <S**2>=0.000
      20 -> 22         0.31586
      20 -> 23         0.45589
      21 -> 22        -0.22927
      21 -> 23        -0.33230
      21 -> 24        -0.11280

 Excited State   5:      Singlet-A      8.5875 eV  144.38 nm  f=0.0373  <S**2>=0.000
      20 -> 27        -0.10449
      21 -> 24         0.58890
      21 -> 25         0.33609

 Excited State   6:      Singlet-A      8.7085 eV  142.37 nm  f=0.0112  <S**2>=0.000
      20 -> 23        -0.17783
      20 -> 25        -0.14122
      21 -> 24        -0.33003
      21 -> 25         0.56135

 Excited State   7:      Singlet-A      8.8179 eV  140.61 nm  f=0.0079  <S**2>=0.000
      20 -> 24         0.58179
      20 -> 25         0.26584
      21 -> 25         0.13951
      21 -> 26        -0.18863
      21 -> 27        -0.14735

 Excited State   8:      Singlet-A      8.9500 eV  138.53 nm  f=0.0888  <S**2>=0.000
      20 -> 24        -0.35154
      20 -> 25         0.54211
      21 -> 26        -0.20241

 Excited State   9:      Singlet-A      9.2762 eV  133.66 nm  f=0.0488  <S**2>=0.000
      20 -> 25         0.28072
      21 -> 26         0.61785

 Excited State  10:      Singlet-A      9.4572 eV  131.10 nm  f=0.0555  <S**2>=0.000
      20 -> 26         0.64715
      21 -> 25         0.11152
      21 -> 26        -0.13730
      21 -> 27         0.14637
      21 -> 28         0.11781

 The electronic state is 1-A.
 Alpha  occ. eigenvalues --  -14.30983 -14.30904 -10.20228 -10.20225 -10.17358
 Alpha  occ. eigenvalues --   -0.87851  -0.86886  -0.74214  -0.63566  -0.58360
 Alpha  occ. eigenvalues --   -0.49453  -0.47413  -0.45384  -0.42853  -0.40006
 Alpha  occ. eigenvalues --   -0.37555  -0.36518  -0.34021  -0.32601  -0.24129
 Alpha  occ. eigenvalues --   -0.23190
 Alpha virt. eigenvalues --    0.08753   0.09156   0.12137   0.12729   0.14610
 Alpha virt. eigenvalues --    0.17179   0.18880   0.19307   0.19697   0.20749
 Alpha virt. eigenvalues --    0.22506   0.24887   0.26702   0.30279   0.51705

 Mulliken charges:
               1
     1  N   -0.420648
     2  C   -0.059925
     3  C   -0.130812
     4  C   -0.078420
     5  N   -0.266758
     6  H    0.151246
     7  H    0.172324
     8  H    0.099754
     9  H    0.089211
    10  H    0.034975
    11  H    0.065103
    12  H    0.086838
    13  H    0.096511
    14  H    0.084880
    15  H    0.075721
 Sum of Mulliken charges =  -0.00000

 Dipole moment (field-independent basis, Debye):
    X=              0.9809    Y=              1.0201    Z=              0.5393  Tot=              1.5145
 Quadrupole moment (field-independent basis, Debye-Ang):
   XX=            -35.5319   YY=            -34.8214   ZZ=            -36.2953
   XY=              1.7994   XZ=              2.0311   YZ=             -0.5852

 Summary of Natural Population Analysis:

                                       Natural Population
                Natural  -----------------------------------------------
    Atom  No    Charge         Core      Valence    Rydberg      Total
 -----------------------------------------------------------------------
      N    1   -0.70135      1.99952     5.68685    0.01499     7.70135
      C    2   -0.30098      1.99931     4.28254    0.01912     6.30098
      C    3   -0.49572      1.99927     4.47830    0.01814     6.49572
      C    4   -0.33396      1.99936     4.31236    0.02224     6.33396
      N    5   -0.57140      1.99948     5.55035    0.02157     7.57140
      H    6    0.30094      0.00000     0.65303    0.04603     0.69906
      H    7    0.32044      0.00000     0.63895    0.04061     0.67956
      H    8    0.22256      0.00000     0.76438    0.01306     0.77744
      H    9    0.21466      0.00000     0.76700    0.01834     0.78534
      H   10    0.18907      0.00000     0.77715    0.03378     0.81093
      H   11    0.21460      0.00000     0.76305    0.02235     0.78540
      H   12    0.21585      0.00000     0.76495    0.01920     0.78415
      H   13    0.22367      0.00000     0.76044    0.01589     0.77633
      H   14    0.25463      0.00000     0.68137    0.06400     0.74537
      H   15    0.24699      0.00000     0.68685    0.06615     0.75301
 =======================================================================
   * Total *   -0.00000      9.99694    31.56758    0.43548    42.00000

 1\1\GINC-CN33\SP\RB3LYP TD-FC\6-31G(d,p)\C3H10N2\QDUEZ\09-Jul-2024\0\\
 # TD(NStates=10, Root=1) B3LYP/6-31G** SCRF=(Solvent=water) volume pop
 =NPA density=current Geom=AllCheck Guess=Read\\XFNJVJPLKCPIBV-UHFFFAOY
 SA-N_conf_0\\0,1\N,0,-2.3896686001,-0.0627911827,-0.2219220977\C,0,-1.
 2520365429,-0.3058899907,0.6802148853\C,0,0.0661948089,0.1003076022,0.
 0183681506\C,0,1.2944915081,-0.1662920361,0.900108807\N,0,2.5919082701
 ,0.2123273511,0.3208144671\H,0,-2.4884044542,0.9426434821,-0.357872351
 \H,0,-3.2486606492,-0.350983218,0.2435292579\H,0,-1.2281389424,-1.3796

 Normal termination of Gaussian 16 at Tue Jul  9 19:19:39 2024.
