 Gaussian 16, Revision A.03,

 -------------------------------------------------------
 # opt=CalcFc B3LYP/6-31G** SCRF=(Solvent=water) scf=xqc
 -------------------------------------------------------

 ----------------------------------
 DDHUNHGZUHZNKB-UHFFFAOYSA-N_conf_0
 ----------------------------------
 Symbolic Z-matrix:
 Charge =  0 Multiplicity = 1

 SCF Done:  E(RB3LYP) =  -308.480128817     A.U. after   11 cycles
 SCF Done:  E(RB3LYP) =  -308.482859833     A.U. after    9 cycles
 SCF Done:  E(RB3LYP) =  -308.483191543     A.U. after   10 cycles
 SCF Done:  E(RB3LYP) =  -308.483200549     A.U. after    7 cycles
 SCF Done:  E(RB3LYP) =  -308.483200681     A.U. after    6 cycles
 Optimization completed.
    -- Stationary point found.
 Normal termination of Gaussian 16 at Wed Jul 17 14:34:24 2024.

 ----------------------------------------------------------------------
 # freq B3LYP/6-31G** SCRF=(Solvent=water) volume NMR pop=NPA density=c
 urrent Geom=AllCheck Guess=Read
 ----------------------------------------------------------------------

 Structure from the checkpoint file:  "DDHUNHGZUHZNKB-UHFFFAOYSA-N_conf_0_1.chk"
 ----------------------------------
 DDHUNHGZUHZNKB-UHFFFAOYSA-N_conf_0
 ----------------------------------
 Charge =  0 Multiplicity = 1

 SCF Done:  E(RB3LYP) =  -308.483200681     A.U. after    1 cycles

      1  N    Isotropic =   239.3220   Anisotropy =    27.5731

      2  C    Isotropic =   136.9618   Anisotropy =    30.9996

      3  C    Isotropic =   152.1188   Anisotropy =    11.7573

      4  C    Isotropic =   166.2724   Anisotropy =    38.7655

      5  C    Isotropic =   172.0942   Anisotropy =    28.2544

      6  C    Isotropic =   140.8277   Anisotropy =    23.1017

      7  N    Isotropic =   241.4100   Anisotropy =    31.2831

      8  H    Isotropic =    31.4766   Anisotropy =    12.3789

      9  H    Isotropic =    31.2478   Anisotropy =    16.0907

     10  H    Isotropic =    28.9518   Anisotropy =     6.2841

     11  H    Isotropic =    29.5537   Anisotropy =     5.3792

     12  H    Isotropic =    31.3176   Anisotropy =     9.5445

     13  H    Isotropic =    31.2968   Anisotropy =     8.3887

     14  H    Isotropic =    29.9776   Anisotropy =     7.4865

     15  H    Isotropic =    30.6545   Anisotropy =     7.4517

     16  H    Isotropic =    31.1999   Anisotropy =     9.2411

     17  H    Isotropic =    30.7593   Anisotropy =     8.4783

     18  H    Isotropic =    28.1777   Anisotropy =     6.2370

     19  H    Isotropic =    29.7394   Anisotropy =     5.9001

     20  H    Isotropic =    31.2651   Anisotropy =    16.2269

     21  H    Isotropic =    31.6293   Anisotropy =    12.8135

  Exact polarizability:  90.625   0.581  83.695  -0.167  -0.128  86.424
 Approx polarizability:  93.894   0.109  89.095  -0.258   0.061  93.939

                      1                      2                      3
                      A                      A                      A
 Frequencies --    105.2996               130.9463               210.3026
 Red. masses --      2.3177                 2.6208                 1.4554
 Frc consts  --      0.0151                 0.0265                 0.0379
 IR Inten    --     12.4580                 2.4081                49.2905

                      4                      5                      6
                      A                      A                      A
 Frequencies --    216.7325               243.0190               253.0024
 Red. masses --      1.2692                 1.0517                 1.3743
 Frc consts  --      0.0351                 0.0366                 0.0518
 IR Inten    --     61.2496                11.1626                15.3201

                      7                      8                      9
                      A                      A                      A
 Frequencies --    283.0173               305.0685               345.7815
 Red. masses --      2.4673                 1.0601                 2.3208
 Frc consts  --      0.1164                 0.0581                 0.1635
 IR Inten    --      4.6600                27.2561                 2.8415

                     10                     11                     12
                      A                      A                      A
 Frequencies --    352.5757               405.2908               459.1962
 Red. masses --      2.3633                 2.1059                 2.9219
 Frc consts  --      0.1731                 0.2038                 0.3630
 IR Inten    --      3.4433                 3.4546                 3.2294

                     13                     14                     15
                      A                      A                      A
 Frequencies --    559.1898               722.3520               860.9190
 Red. masses --      2.9638                 3.0169                 1.4662
 Frc consts  --      0.5460                 0.9275                 0.6403
 IR Inten    --     24.2390                 3.5399                47.5834

                     16                     17                     18
                      A                      A                      A
 Frequencies --    869.8993               882.4988               928.0335
 Red. masses --      1.3051                 1.5759                 1.8908
 Frc consts  --      0.5819                 0.7231                 0.9594
 IR Inten    --    166.8676                14.4162                59.5570

                     19                     20                     21
                      A                      A                      A
 Frequencies --    947.3039               961.9779              1013.4778
 Red. masses --      1.7266                 1.3565                 1.3432
 Frc consts  --      0.9129                 0.7396                 0.8128
 IR Inten    --     25.2368                30.5849                25.9921

                     22                     23                     24
                      A                      A                      A
 Frequencies --   1034.8115              1071.1808              1080.3142
 Red. masses --      1.4960                 2.5990                 2.4152
 Frc consts  --      0.9439                 1.7570                 1.6607
 IR Inten    --     35.8842                13.6723                12.0954

                     25                     26                     27
                      A                      A                      A
 Frequencies --   1114.6670              1179.0547              1230.8071
 Red. masses --      1.4145                 1.1843                 2.2717
 Frc consts  --      1.0355                 0.9700                 2.0276
 IR Inten    --     10.3888                 2.9309                 5.0938

                     28                     29                     30
                      A                      A                      A
 Frequencies --   1257.8886              1304.5143              1345.3839
 Red. masses --      2.3007                 2.0283                 1.2395
 Frc consts  --      2.1448                 2.0337                 1.3219
 IR Inten    --      0.7691                 0.4492                 8.7200

                     31                     32                     33
                      A                      A                      A
 Frequencies --   1358.7589              1400.2740              1407.8176
 Red. masses --      1.2493                 1.2723                 1.2886
 Frc consts  --      1.3589                 1.4698                 1.5048
 IR Inten    --      5.9846                 7.5577                 1.8278

                     34                     35                     36
                      A                      A                      A
 Frequencies --   1419.2486              1441.0048              1492.7033
 Red. masses --      1.4096                 1.3304                 1.0513
 Frc consts  --      1.6728                 1.6277                 1.3801
 IR Inten    --     10.2354                13.6079                 0.4546

                     37                     38                     39
                      A                      A                      A
 Frequencies --   1503.7580              1505.3073              1509.1408
 Red. masses --      1.0557                 1.0691                 1.0713
 Frc consts  --      1.4065                 1.4273                 1.4375
 IR Inten    --      1.1962                 6.5829                 1.5846

                     40                     41                     42
                      A                      A                      A
 Frequencies --   1518.9299              1523.9183              1657.9042
 Red. masses --      1.0735                 1.0636                 1.0862
 Frc consts  --      1.4593                 1.4553                 1.7590
 IR Inten    --      4.4075                14.9662                45.9589

                     43                     44                     45
                      A                      A                      A
 Frequencies --   1658.5832              2955.1787              3003.7277
 Red. masses --      1.0847                 1.0715                 1.0617
 Frc consts  --      1.7581                 5.5132                 5.6436
 IR Inten    --     28.2349               124.0187                77.8366

                     46                     47                     48
                      A                      A                      A
 Frequencies --   3030.3047              3035.7076              3050.0623
 Red. masses --      1.0369                 1.0388                 1.0944
 Frc consts  --      5.6097                 5.6401                 5.9983
 IR Inten    --     60.1654                27.7765                12.8743

                     49                     50                     51
                      A                      A                      A
 Frequencies --   3055.0859              3093.6417              3099.7617
 Red. masses --      1.0960                 1.1016                 1.1016
 Frc consts  --      6.0273                 6.2117                 6.2361
 IR Inten    --    112.4384                66.3588                58.4471

                     52                     53                     54
                      A                      A                      A
 Frequencies --   3110.6335              3131.0417              3486.6466
 Red. masses --      1.1015                 1.0991                 1.0510
 Frc consts  --      6.2797                 6.3486                 7.5278
 IR Inten    --     41.7676                38.0705                 1.3958

                     55                     56                     57
                      A                      A                      A
 Frequencies --   3490.5081              3561.2256              3566.1835
 Red. masses --      1.0509                 1.0914                 1.0916
 Frc consts  --      7.5434                 8.1548                 8.1796
 IR Inten    --      0.8573                 0.0161                 0.0938

 - Thermochemistry -
 -------------------
 Temperature   298.150 Kelvin.  Pressure   1.00000 Atm.
 Atom     1 has atomic number  7 and mass  14.00307

 Molecular mass:   102.11570 amu.
 Principal axes and moments of inertia in atomic units:
                           1         2         3
     Eigenvalues --   550.92994 970.891921090.23000
           X            0.99993   0.01201  -0.00022
           Y           -0.01201   0.99978  -0.01711
           Z            0.00001   0.01711   0.99985
 This molecule is an asymmetric top.
 Rotational symmetry number  1.
 Warning -- assumption of classical behavior for rotation
           may cause significant error
 Rotational temperatures (Kelvin)      0.15721     0.08921     0.07945
 Rotational constants (GHZ):           3.27581     1.85885     1.65538
 Zero-point vibrational energy     512848.4 (Joules/Mol)
                                  122.57372 (Kcal/Mol)
 Warning -- explicit consideration of  13 degrees of freedom as
           vibrations may cause significant error
 Vibrational temperatures:    151.50   188.40   302.58   311.83   349.65
          (Kelvin)            364.01   407.20   438.93   497.50   507.28
                              583.12   660.68   804.55  1039.30  1238.67
                             1251.59  1269.72  1335.23  1362.96  1384.07
                             1458.17  1488.86  1541.19  1554.33  1603.76
                             1696.40  1770.86  1809.82  1876.91  1935.71
                             1954.95  2014.68  2025.54  2041.98  2073.28
                             2147.67  2163.57  2165.80  2171.32  2185.40
                             2192.58  2385.35  2386.33  4251.84  4321.69
                             4359.93  4367.71  4388.36  4395.59  4451.06
                             4459.87  4475.51  4504.87  5016.51  5022.06
                             5123.81  5130.94

 Zero-point correction=                           0.195334 (Hartree/Particle)
 Thermal correction to Energy=                    0.204654
 Thermal correction to Enthalpy=                  0.205598
 Thermal correction to Gibbs Free Energy=         0.162493
 Sum of electronic and zero-point Energies=           -308.287867
 Sum of electronic and thermal Energies=              -308.278547
 Sum of electronic and thermal Enthalpies=            -308.277603
 Sum of electronic and thermal Free Energies=         -308.320708

                     E (Thermal)             CV                S
                      KCal/Mol        Cal/Mol-Kelvin    Cal/Mol-Kelvin
 Total                  128.422             34.641             90.722
 Electronic               0.000              0.000              0.000
 Translational            0.889              2.981             39.780
 Rotational               0.889              2.981             27.858
 Vibrational            126.645             28.679             23.083
 Vibration     1          0.605              1.945              3.354
 Vibration     2          0.612              1.922              2.932
 Vibration     3          0.642              1.825              2.041
 Vibration     4          0.646              1.816              1.986
 Vibration     5          0.659              1.774              1.781
 Vibration     6          0.664              1.758              1.710
 Vibration     7          0.682              1.705              1.515
 Vibration     8          0.696              1.664              1.389
 Vibration     9          0.724              1.584              1.185
 Vibration    10          0.729              1.570              1.155
 Vibration    11          0.770              1.459              0.943
 Vibration    12          0.817              1.341              0.768
 Vibration    13          0.915              1.120              0.525

 Optimization completed.
    -- Stationary point found.
 Normal termination of Gaussian 16 at Wed Jul 17 14:38:34 2024.
 Gaussian 16:  ES64L-G16RevA.03 25-Dec-2016

 ----------------------------------------------------------------------
 # TD(NStates=10, Root=1) B3LYP/6-31G** SCRF=(Solvent=water) volume pop
 =NPA density=current Geom=AllCheck Guess=Read
 ----------------------------------------------------------------------

 Structure from the checkpoint file:  "DDHUNHGZUHZNKB-UHFFFAOYSA-N_conf_0_2.chk"
 ----------------------------------
 DDHUNHGZUHZNKB-UHFFFAOYSA-N_conf_0
 ----------------------------------
 Charge =  0 Multiplicity = 1

                         Standard orientation:
 ---------------------------------------------------------------------
 Center     Atomic      Atomic             Coordinates (Angstroms)
 Number     Number       Type             X           Y           Z
 ---------------------------------------------------------------------
      1          7           0        2.152319   -0.960200   -0.037705
      2          6           0        1.446888    0.236367   -0.526065
      3          6           0       -0.003427    0.360271    0.001752
      4          6           0       -0.580862    1.692830   -0.507850
      5          6           0       -0.005275    0.357443    1.543057
      6          6           0       -0.841038   -0.821469   -0.541920
      7          7           0       -2.229785   -0.818210   -0.044305
      8          1           0        2.428139   -0.815250    0.931298
      9          1           0        3.026382   -1.055466   -0.550368
     10          1           0        1.976087    1.174312   -0.283694
     11          1           0        1.412806    0.174635   -1.621264
     12          1           0       -0.512479    1.759052   -1.600520
     13          1           0       -0.038393    2.546744   -0.086319
     14          1           0       -1.634375    1.782806   -0.231689
     15          1           0       -1.010058    0.546066    1.934233
     16          1           0        0.651697    1.142548    1.935536
     17          1           0        0.336130   -0.602618    1.945762
     18          1           0       -0.303277   -1.753869   -0.318324
     19          1           0       -0.884655   -0.735016   -1.635326
     20          1           0       -2.763250   -1.505485   -0.573005
     21          1           0       -2.240214   -1.162246    0.913907
 ---------------------------------------------------------------------

 SCF Done:  E(RB3LYP) =  -308.483200681     A.U. after    1 cycles

 Excitation energies and oscillator strengths:

 Excited State   1:      Singlet-A      7.0907 eV  174.85 nm  f=0.0282  <S**2>=0.000
      28 -> 31         0.18814
      29 -> 30         0.67558
 This state for optimization and/or second-order correction.
 Total Energy, E(TD-HF/TD-DFT) =  -308.222622350
 Copying the excited state density for this state as the 1-particle RhoCI density.

 Excited State   2:      Singlet-A      7.3684 eV  168.26 nm  f=0.0142  <S**2>=0.000
      28 -> 30         0.44166
      29 -> 31         0.54241

 Excited State   3:      Singlet-A      7.9704 eV  155.56 nm  f=0.0003  <S**2>=0.000
      28 -> 30         0.54825
      29 -> 31        -0.43859

 Excited State   4:      Singlet-A      8.1293 eV  152.51 nm  f=0.0120  <S**2>=0.000
      28 -> 31        -0.46940
      29 -> 30         0.17205
      29 -> 32         0.49126

 Excited State   5:      Singlet-A      8.3460 eV  148.56 nm  f=0.0014  <S**2>=0.000
      28 -> 31         0.44903
      29 -> 32         0.46197
      29 -> 33         0.22878

 Excited State   6:      Singlet-A      8.6607 eV  143.16 nm  f=0.0569  <S**2>=0.000
      28 -> 31        -0.16535
      28 -> 33        -0.14949
      29 -> 32        -0.17010
      29 -> 33         0.62786

 Excited State   7:      Singlet-A      8.7504 eV  141.69 nm  f=0.0287  <S**2>=0.000
      28 -> 32         0.59508
      28 -> 33         0.18359
      29 -> 35         0.21778
      29 -> 36         0.18931

 Excited State   8:      Singlet-A      9.0559 eV  136.91 nm  f=0.0377  <S**2>=0.000
      28 -> 32        -0.31638
      28 -> 33         0.35911
      29 -> 34         0.34660
      29 -> 35         0.19547
      29 -> 36         0.26463

 Excited State   9:      Singlet-A      9.1741 eV  135.15 nm  f=0.0165  <S**2>=0.000
      28 -> 32         0.15052
      28 -> 33        -0.18863
      29 -> 33        -0.13040
      29 -> 34         0.57008
      29 -> 35        -0.22625
      29 -> 36        -0.12993

 Excited State  10:      Singlet-A      9.2630 eV  133.85 nm  f=0.0651  <S**2>=0.000
      28 -> 33        -0.18943
      29 -> 35         0.57557
      29 -> 36        -0.32206

 The electronic state is 1-A.
 Alpha  occ. eigenvalues --  -14.30854 -14.30642 -10.19840 -10.19290 -10.18603
 Alpha  occ. eigenvalues --  -10.16718 -10.16305  -0.88019  -0.86530  -0.78360
 Alpha  occ. eigenvalues --   -0.67841  -0.65837  -0.63699  -0.52415  -0.48782
 Alpha  occ. eigenvalues --   -0.47226  -0.45224  -0.43725  -0.43138  -0.39891
 Alpha  occ. eigenvalues --   -0.39233  -0.37433  -0.36240  -0.35494  -0.32131
 Alpha  occ. eigenvalues --   -0.31459  -0.31045  -0.24366  -0.22316
 Alpha virt. eigenvalues --    0.07661   0.09589   0.11635   0.13161   0.14811
 Alpha virt. eigenvalues --    0.15110   0.15866   0.16854   0.18555   0.19291
 Alpha virt. eigenvalues --    0.19572   0.20994   0.21170   0.22232   0.22955

 Mulliken charges:
               1
     1  N   -0.401932
     2  C   -0.049708
     3  C    0.048890
     4  C   -0.291718
     5  C   -0.231345
     6  C   -0.030837
     7  N   -0.364127
     8  H    0.169677
     9  H    0.171827
    10  H    0.105097
    11  H    0.067704
    12  H    0.076815
    13  H    0.076524
    14  H    0.099975
    15  H    0.029640
    16  H    0.019405
    17  H    0.029403
    18  H    0.095059
    19  H    0.061756
    20  H    0.167815
    21  H    0.150082
 Sum of Mulliken charges =   0.00000

 Dipole moment (field-independent basis, Debye):
    X=              0.8688    Y=             -1.1258    Z=             -1.1935  Tot=              1.8566
 Quadrupole moment (field-independent basis, Debye-Ang):
   XX=            -43.1728   YY=            -49.0018   ZZ=            -50.8740
   XY=              2.8308   XZ=             -0.1998   YZ=             -0.4084

 Summary of Natural Population Analysis:

                                       Natural Population
                Natural  -----------------------------------------------
    Atom  No    Charge         Core      Valence    Rydberg      Total
 -----------------------------------------------------------------------
      N    1   -0.67255      1.99950     5.65905    0.01400     7.67255
      C    2   -0.29633      1.99921     4.27827    0.01885     6.29633
      C    3   -0.06717      1.99912     4.05393    0.01413     6.06717
      C    4   -0.69285      1.99937     4.68248    0.01100     6.69285
      C    5   -0.70933      1.99936     4.69807    0.01190     6.70933
      C    6   -0.29598      1.99917     4.27799    0.01882     6.29598
      N    7   -0.62687      1.99947     5.61374    0.01366     7.62687
      H    8    0.31852      0.00000     0.63864    0.04285     0.68148
      H    9    0.31497      0.00000     0.64473    0.04030     0.68503
      H   10    0.24255      0.00000     0.74034    0.01711     0.75745
      H   11    0.20158      0.00000     0.77808    0.02034     0.79842
      H   12    0.21674      0.00000     0.77487    0.00839     0.78326
      H   13    0.21690      0.00000     0.77312    0.00998     0.78310
      H   14    0.23926      0.00000     0.75620    0.00454     0.76074
      H   15    0.18642      0.00000     0.79372    0.01987     0.81358
      H   16    0.18351      0.00000     0.79288    0.02362     0.81649
      H   17    0.18877      0.00000     0.78782    0.02341     0.81123
      H   18    0.23637      0.00000     0.74502    0.01861     0.76363
      H   19    0.20144      0.00000     0.77400    0.02455     0.79856
      H   20    0.31309      0.00000     0.64406    0.04284     0.68691
      H   21    0.30096      0.00000     0.64903    0.05002     0.69904
 =======================================================================
   * Total *   -0.00000     13.99520    43.55602    0.44878    58.00000

 Normal termination of Gaussian 16 at Wed Jul 17 14:44:23 2024.
