 Gaussian 16, Revision A.03,

 -------------------------------------------------------
 # opt=CalcFc B3LYP/6-31G** SCRF=(Solvent=water) scf=xqc
 -------------------------------------------------------

 ----------------------------------
 YQLZOAVZWJBZSY-UHFFFAOYSA-N_conf_4
 ----------------------------------
 Symbolic Z-matrix:
 Charge =  0 Multiplicity = 1

 SCF Done:  E(RB3LYP) =  -505.064724027     A.U. after   10 cycles
 SCF Done:  E(RB3LYP) =  -505.069399933     A.U. after    9 cycles
 SCF Done:  E(RB3LYP) =  -505.069490548     A.U. after    8 cycles
 SCF Done:  E(RB3LYP) =  -505.069489263     A.U. after    8 cycles
 SCF Done:  E(RB3LYP) =  -505.069491033     A.U. after    7 cycles
 Optimization completed.
    -- Stationary point found.
 Normal termination of Gaussian 16 at Sun Jul 21 12:12:33 2024.

 ----------------------------------------------------------------------
 # freq B3LYP/6-31G** SCRF=(Solvent=water) volume NMR pop=NPA density=c
 urrent Geom=AllCheck Guess=Read
 ----------------------------------------------------------------------

 Structure from the checkpoint file:  "YQLZOAVZWJBZSY-UHFFFAOYSA-N_conf_4_1.chk"
 ----------------------------------
 YQLZOAVZWJBZSY-UHFFFAOYSA-N_conf_4
 ----------------------------------
 Charge =  0 Multiplicity = 1

 SCF Done:  E(RB3LYP) =  -505.069491033     A.U. after    1 cycles

      1  N    Isotropic =   237.4847   Anisotropy =    41.1392

      2  C    Isotropic =   147.1575   Anisotropy =    26.0222

      3  C    Isotropic =   154.7686   Anisotropy =    27.0996

      4  C    Isotropic =   162.3465   Anisotropy =    24.6302

      5  C    Isotropic =   157.9834   Anisotropy =    32.8142

      6  C    Isotropic =   157.8747   Anisotropy =    33.3356

      7  C    Isotropic =   157.7952   Anisotropy =    33.5040

      8  C    Isotropic =   157.8958   Anisotropy =    33.1130

      9  C    Isotropic =   160.9518   Anisotropy =    28.5751

     10  C    Isotropic =   151.5038   Anisotropy =    41.6789

     11  C    Isotropic =   146.0712   Anisotropy =    40.0335

     12  N    Isotropic =   230.3283   Anisotropy =    27.6368

     13  H    Isotropic =    31.9029   Anisotropy =    13.3162

     14  H    Isotropic =    30.9269   Anisotropy =    11.6309

     15  H    Isotropic =    29.3529   Anisotropy =     7.1942

     16  H    Isotropic =    29.0314   Anisotropy =     8.4642

     17  H    Isotropic =    30.3776   Anisotropy =     6.2585

     18  H    Isotropic =    30.5695   Anisotropy =     5.8948

     19  H    Isotropic =    30.7538   Anisotropy =     5.5189

     20  H    Isotropic =    30.1380   Anisotropy =     5.6103

     21  H    Isotropic =    30.4356   Anisotropy =     4.6981

     22  H    Isotropic =    30.5203   Anisotropy =     4.7165

     23  H    Isotropic =    30.4412   Anisotropy =     4.4253

     24  H    Isotropic =    30.4290   Anisotropy =     4.3992

     25  H    Isotropic =    30.4671   Anisotropy =     4.4191

     26  H    Isotropic =    30.4686   Anisotropy =     4.4566

     27  H    Isotropic =    30.4656   Anisotropy =     4.5281

     28  H    Isotropic =    30.4670   Anisotropy =     4.5364

     29  H    Isotropic =    30.5585   Anisotropy =     4.8876

     30  H    Isotropic =    30.5587   Anisotropy =     4.8979

     31  H    Isotropic =    30.4577   Anisotropy =     4.1302

     32  H    Isotropic =    30.4555   Anisotropy =     4.1372

     33  H    Isotropic =    29.3007   Anisotropy =     5.4520

     34  H    Isotropic =    29.2998   Anisotropy =     5.4587

     35  H    Isotropic =    31.4123   Anisotropy =    12.3687

     36  H    Isotropic =    31.4151   Anisotropy =    12.3717

  Exact polarizability: 172.881  -3.839 148.758  -2.155  -1.527 148.198
 Approx polarizability: 162.419  -3.153 163.127  -2.610  -2.438 165.879

                      1                      2                      3
                      A                      A                      A
 Frequencies --     23.5933                35.2578                40.3596
 Red. masses --      3.7686                 2.6072                 2.7166
 Frc consts  --      0.0012                 0.0019                 0.0026
 IR Inten    --      1.5313                 1.2029                 1.4597

                      4                      5                      6
                      A                      A                      A
 Frequencies --     64.1943                83.1880                99.2933
 Red. masses --      3.0702                 1.6954                 3.6773
 Frc consts  --      0.0075                 0.0069                 0.0214
 IR Inten    --      0.3761                 0.9920                 0.6723

                      7                      8                      9
                      A                      A                      A
 Frequencies --    115.4749               129.7236               148.7868
 Red. masses --      2.6158                 1.7145                 2.7830
 Frc consts  --      0.0206                 0.0170                 0.0363
 IR Inten    --      2.8950                 0.4726                 0.2769

                     10                     11                     12
                      A                      A                      A
 Frequencies --    163.5080               170.4665               195.3686
 Red. masses --      1.9091                 2.2363                 2.2539
 Frc consts  --      0.0301                 0.0383                 0.0507
 IR Inten    --      0.6889                 0.1800                 8.3349

                     13                     14                     15
                      A                      A                      A
 Frequencies --    208.2350               283.4544               297.3333
 Red. masses --      3.4973                 2.0815                 1.1114
 Frc consts  --      0.0893                 0.0985                 0.0579
 IR Inten    --      5.8051                17.5219                73.4914

                     16                     17                     18
                      A                      A                      A
 Frequencies --    323.1135               350.6931               404.8686
 Red. masses --      1.4276                 3.2761                 3.1359
 Frc consts  --      0.0878                 0.2374                 0.3029
 IR Inten    --     48.1328                 4.5640                 2.6057

                     19                     20                     21
                      A                      A                      A
 Frequencies --    455.0317               504.9199               522.3203
 Red. masses --      2.6748                 2.9724                 2.3840
 Frc consts  --      0.3263                 0.4465                 0.3832
 IR Inten    --      3.7983                 1.9572                 5.6629

                     22                     23                     24
                      A                      A                      A
 Frequencies --    733.1340               735.3849               744.3236
 Red. masses --      1.0580                 1.0736                 1.1050
 Frc consts  --      0.3350                 0.3421                 0.3607
 IR Inten    --     13.7106                 0.2677                 4.9516

                     25                     26                     27
                      A                      A                      A
 Frequencies --    765.6501               804.0797               836.2427
 Red. masses --      1.1595                 1.2320                 1.5125
 Frc consts  --      0.4005                 0.4693                 0.6232
 IR Inten    --      2.1448                 7.0710                20.1722

                     28                     29                     30
                      A                      A                      A
 Frequencies --    867.2398               898.2380               905.1884
 Red. masses --      1.6477                 1.6154                 1.8620
 Frc consts  --      0.7301                 0.7679                 0.8989
 IR Inten    --     11.5464               126.8513               184.0719

                     31                     32                     33
                      A                      A                      A
 Frequencies --    935.4169               976.6021               997.1669
 Red. masses --      1.3039                 1.6170                 2.5325
 Frc consts  --      0.6722                 0.9086                 1.4837
 IR Inten    --     79.7889                58.7719                 3.2516

                     34                     35                     36
                      A                      A                      A
 Frequencies --   1000.6215              1018.8005              1040.5353
 Red. masses --      3.6685                 1.7341                 1.6345
 Frc consts  --      2.1641                 1.0605                 1.0427
 IR Inten    --     25.7532                 2.2645                31.9220

                     37                     38                     39
                      A                      A                      A
 Frequencies --   1046.2805              1055.8922              1066.0828
 Red. masses --      3.3420                 1.9939                 2.2914
 Frc consts  --      2.1555                 1.3098                 1.5344
 IR Inten    --     15.5700                24.9898                 1.0689

                     40                     41                     42
                      A                      A                      A
 Frequencies --   1068.6862              1072.5029              1083.7545
 Red. masses --      2.1059                 1.1706                 2.1204
 Frc consts  --      1.4171                 0.7933                 1.4673
 IR Inten    --      0.0646                 2.4234                 5.9689

                     43                     44                     45
                      A                      A                      A
 Frequencies --   1086.7121              1122.8203              1149.8031
 Red. masses --      2.5345                 2.3826                 2.1450
 Frc consts  --      1.7635                 1.7698                 1.6708
 IR Inten    --      5.6163                 9.1593                21.1512

                     46                     47                     48
                      A                      A                      A
 Frequencies --   1206.6704              1227.0056              1241.4845
 Red. masses --      1.5666                 1.4918                 1.4114
 Frc consts  --      1.3440                 1.3233                 1.2817
 IR Inten    --      1.1615                 0.3172                 9.5588

                     49                     50                     51
                      A                      A                      A
 Frequencies --   1265.3005              1277.3725              1300.1533
 Red. masses --      1.3876                 1.3444                 1.3142
 Frc consts  --      1.3089                 1.2924                 1.3089
 IR Inten    --      4.4142                 0.2271                 0.6910

                     52                     53                     54
                      A                      A                      A
 Frequencies --   1311.9011              1324.1877              1329.2156
 Red. masses --      1.3150                 1.1965                 1.0380
 Frc consts  --      1.3334                 1.2361                 1.0806
 IR Inten    --      2.9226                 1.6973                 0.3349

                     55                     56                     57
                      A                      A                      A
 Frequencies --   1334.0330              1339.2448              1341.1392
 Red. masses --      1.0690                 1.1210                 1.0921
 Frc consts  --      1.1209                 1.1846                 1.1573
 IR Inten    --      0.1810                 0.4647                 0.0884

                     58                     59                     60
                      A                      A                      A
 Frequencies --   1347.5372              1378.1824              1393.1967
 Red. masses --      1.3517                 1.4114                 1.3237
 Frc consts  --      1.4461                 1.5795                 1.5138
 IR Inten    --      1.3177                 1.6410                25.4753

                     61                     62                     63
                      A                      A                      A
 Frequencies --   1396.5372              1396.9117              1403.2443
 Red. masses --      1.1775                 1.2331                 1.3441
 Frc consts  --      1.3531                 1.4177                 1.5594
 IR Inten    --      0.0213                 3.9141                 1.7703

                     64                     65                     66
                      A                      A                      A
 Frequencies --   1410.3142              1413.4960              1414.5659
 Red. masses --      1.5089                 1.6517                 1.6436
 Frc consts  --      1.7682                 1.9443                 1.9378
 IR Inten    --     10.1983                 0.3559                 1.4374

                     67                     68                     69
                      A                      A                      A
 Frequencies --   1482.9772              1484.2081              1485.0253
 Red. masses --      1.0817                 1.0774                 1.0743
 Frc consts  --      1.4016                 1.3984                 1.3959
 IR Inten    --      1.6516                 0.2568                 0.0180

                     70                     71                     72
                      A                      A                      A
 Frequencies --   1488.3650              1494.5509              1497.1510
 Red. masses --      1.0828                 1.0882                 1.0915
 Frc consts  --      1.4133                 1.4321                 1.4415
 IR Inten    --      0.5938                 0.1191                 0.2307

                     73                     74                     75
                      A                      A                      A
 Frequencies --   1502.8129              1510.7391              1517.4353
 Red. masses --      1.0954                 1.0985                 1.0996
 Frc consts  --      1.4575                 1.4771                 1.4918
 IR Inten    --      0.2772                 0.3428                 0.0414

                     76                     77                     78
                      A                      A                      A
 Frequencies --   1522.1699              1660.3301              1660.5940
 Red. masses --      1.0991                 1.0881                 1.0869
 Frc consts  --      1.5004                 1.7673                 1.7658
 IR Inten    --      4.4238                29.6959                31.5559

                     79                     80                     81
                      A                      A                      A
 Frequencies --   3005.1800              3005.4390              3006.9453
 Red. masses --      1.0584                 1.0585                 1.0587
 Frc consts  --      5.6315                 5.6335                 5.6398
 IR Inten    --      0.4384                 8.2078                 1.4307

                     82                     83                     84
                      A                      A                      A
 Frequencies --   3007.2217              3009.3494              3010.2713
 Red. masses --      1.0591                 1.0591                 1.0598
 Frc consts  --      5.6434                 5.6510                 5.6585
 IR Inten    --      0.7000                 0.4484                26.5295

                     85                     86                     87
                      A                      A                      A
 Frequencies --   3014.4593              3017.5671              3025.4703
 Red. masses --      1.0601                 1.0600                 1.0669
 Frc consts  --      5.6757                 5.6867                 5.7540
 IR Inten    --      2.1421               377.9438                45.6429

                     88                     89                     90
                      A                      A                      A
 Frequencies --   3025.6910              3028.4372              3030.4877
 Red. masses --      1.0595                 1.0986                 1.0988
 Frc consts  --      5.7147                 5.9363                 5.9457
 IR Inten    --    137.7215                 0.4120                 1.8455

                     91                     92                     93
                      A                      A                      A
 Frequencies --   3034.0812              3039.3174              3045.5709
 Red. masses --      1.0988                 1.1002                 1.1028
 Frc consts  --      5.9596                 5.9880                 6.0265
 IR Inten    --      3.5125                12.4489                 8.0506

                     94                     95                     96
                      A                      A                      A
 Frequencies --   3053.0488              3060.6905              3066.0725
 Red. masses --      1.1048                 1.1058                 1.1058
 Frc consts  --      6.0672                 6.1031                 6.1249
 IR Inten    --     23.9270                11.4247               195.8685

                     97                     98                     99
                      A                      A                      A
 Frequencies --   3069.0048              3071.1864              3468.8576
 Red. masses --      1.1057                 1.1068                 1.0502
 Frc consts  --      6.1359                 6.1507                 7.4457
 IR Inten    --    156.0353               339.6701                 1.7013

                    100                    101                    102
                      A                      A                      A
 Frequencies --   3475.6987              3545.5235              3556.4706
 Red. masses --      1.0504                 1.0914                 1.0913
 Frc consts  --      7.4761                 8.0834                 8.1324
 IR Inten    --      1.5040                 0.2932                 0.1316

 - Thermochemistry -
 -------------------
 Temperature   298.150 Kelvin.  Pressure   1.00000 Atm.
 Atom     1 has atomic number  7 and mass  14.00307

 Molecular mass:   172.19395 amu.
 Principal axes and moments of inertia in atomic units:
                           1         2         3
     Eigenvalues --   355.68328********************
           X            1.00000  -0.00221  -0.00042
           Y            0.00222   0.99987   0.01584
           Z            0.00039  -0.01584   0.99987
 This molecule is an asymmetric top.
 Rotational symmetry number  1.
 Rotational temperatures (Kelvin)      0.24351     0.00730     0.00720
 Rotational constants (GHZ):           5.07401     0.15211     0.15007
 Zero-point vibrational energy     889186.9 (Joules/Mol)
                                  212.52077 (Kcal/Mol)
 Warning -- explicit consideration of  21 degrees of freedom as
           vibrations may cause significant error
 Vibrational temperatures:     33.95    50.73    58.07    92.36   119.69
          (Kelvin)            142.86   166.14   186.64   214.07   235.25
                              245.26   281.09   299.60   407.83   427.80
                              464.89   504.57   582.52   654.69   726.47
                              751.50  1054.82  1058.05  1070.92  1101.60
                             1156.89  1203.17  1247.76  1292.36  1302.36
                             1345.86  1405.11  1434.70  1439.67  1465.83
                             1497.10  1505.36  1519.19  1533.86  1537.60
                             1543.09  1559.28  1563.54  1615.49  1654.31
                             1736.13  1765.39  1786.22  1820.49  1837.85
                             1870.63  1887.53  1905.21  1912.44  1919.38
                             1926.87  1929.60  1938.81  1982.90  2004.50
                             2009.31  2009.84  2018.96  2029.13  2033.71
                             2035.24  2133.67  2135.44  2136.62  2141.43
                             2150.33  2154.07  2162.21  2173.62  2183.25
                             2190.06  2388.84  2389.22  4323.78  4324.16
                             4326.32  4326.72  4329.78  4331.11  4337.13
                             4341.61  4352.98  4353.29  4357.25  4360.20
                             4365.37  4372.90  4381.90  4392.66  4403.65
                             4411.39  4415.61  4418.75  4990.91  5000.76
                             5101.22  5116.97

 Zero-point correction=                           0.338673 (Hartree/Particle)
 Thermal correction to Energy=                    0.354844
 Thermal correction to Enthalpy=                  0.355788
 Thermal correction to Gibbs Free Energy=         0.292910
 Sum of electronic and zero-point Energies=           -504.730818
 Sum of electronic and thermal Energies=              -504.714647
 Sum of electronic and thermal Enthalpies=            -504.713703
 Sum of electronic and thermal Free Energies=         -504.776581

                     E (Thermal)             CV                S
                      KCal/Mol        Cal/Mol-Kelvin    Cal/Mol-Kelvin
 Total                  222.668             57.219            132.337
 Electronic               0.000              0.000              0.000
 Translational            0.889              2.981             41.338
 Rotational               0.889              2.981             32.295
 Vibrational            220.890             51.258             58.704
 Vibration     1          0.593              1.985              6.306
 Vibration     2          0.594              1.982              5.509
 Vibration     3          0.594              1.981              5.241
 Vibration     4          0.597              1.971              4.324
 Vibration     5          0.600              1.961              3.814
 Vibration     6          0.604              1.950              3.468
 Vibration     7          0.608              1.937              3.175
 Vibration     8          0.612              1.924              2.950
 Vibration     9          0.618              1.904              2.688
 Vibration    10          0.623              1.887              2.509
 Vibration    11          0.626              1.879              2.430
 Vibration    12          0.636              1.846              2.176
 Vibration    13          0.642              1.828              2.059
 Vibration    14          0.682              1.704              1.513
 Vibration    15          0.691              1.679              1.432
 Vibration    16          0.708              1.629              1.294
 Vibration    17          0.728              1.574              1.163
 Vibration    18          0.770              1.460              0.945
 Vibration    19          0.813              1.350              0.781
 Vibration    20          0.860              1.239              0.646
 Vibration    21          0.877              1.201              0.605

 Optimization completed.
    -- Stationary point found.
 Normal termination of Gaussian 16 at Sun Jul 21 12:24:58 2024.
 Gaussian 16:  ES64L-G16RevA.03 25-Dec-2016

 ----------------------------------------------------------------------
 # TD(NStates=10, Root=1) B3LYP/6-31G** SCRF=(Solvent=water) volume pop
 =NPA density=current Geom=AllCheck Guess=Read
 ----------------------------------------------------------------------

 Structure from the checkpoint file:  "YQLZOAVZWJBZSY-UHFFFAOYSA-N_conf_4_2.chk"
 ----------------------------------
 YQLZOAVZWJBZSY-UHFFFAOYSA-N_conf_4
 ----------------------------------
 Charge =  0 Multiplicity = 1

                         Standard orientation:
 ---------------------------------------------------------------------
 Center     Atomic      Atomic             Coordinates (Angstroms)
 Number     Number       Type             X           Y           Z
 ---------------------------------------------------------------------
      1          7           0        6.207328    1.154556   -0.422779
      2          6           0        5.877559   -0.072891    0.317858
      3          6           0        4.549874   -0.763314   -0.039589
      4          6           0        3.300211    0.073168    0.260940
      5          6           0        1.988914   -0.643525   -0.084647
      6          6           0        0.736259    0.190243    0.211607
      7          6           0       -0.573982   -0.530492   -0.128949
      8          6           0       -1.827788    0.302325    0.165123
      9          6           0       -3.137084   -0.421601   -0.172763
     10          6           0       -4.392262    0.410085    0.119142
     11          6           0       -5.699731   -0.320263   -0.219754
     12          7           0       -6.939831    0.427501    0.037623
     13          1           0        6.169002    0.958116   -1.422462
     14          1           0        5.484089    1.852567   -0.259803
     15          1           0        5.880766    0.174383    1.387707
     16          1           0        6.698992   -0.783500    0.163613
     17          1           0        4.491893   -1.711335    0.513871
     18          1           0        4.563935   -1.031612   -1.106215
     19          1           0        3.295626    0.345626    1.326416
     20          1           0        3.346500    1.019037   -0.296342
     21          1           0        1.935453   -1.589202    0.473501
     22          1           0        1.997192   -0.919812   -1.148737
     23          1           0        0.730152    0.470039    1.274834
     24          1           0        0.787810    1.133988   -0.350075
     25          1           0       -0.567175   -0.811878   -1.191766
     26          1           0       -0.625376   -1.473513    0.433967
     27          1           0       -1.778350    1.244175   -0.399740
     28          1           0       -1.834255    0.585473    1.227376
     29          1           0       -3.129503   -0.706093   -1.234729
     30          1           0       -3.186166   -1.363004    0.393032
     31          1           0       -4.351593    1.350179   -0.449873
     32          1           0       -4.407516    0.693139    1.181632
     33          1           0       -5.693130   -0.604112   -1.280316
     34          1           0       -5.749530   -1.258465    0.348336
     35          1           0       -6.906062    1.304807   -0.480674
     36          1           0       -6.957044    0.704194    1.018732
 ---------------------------------------------------------------------

 SCF Done:  E(RB3LYP) =  -505.069491033     A.U. after    1 cycles

 Excitation energies and oscillator strengths:

 Excited State   1:      Singlet-A      7.4043 eV  167.45 nm  f=0.0235  <S**2>=0.000
      48 -> 50         0.57620
      48 -> 52        -0.10415
      49 -> 50        -0.35176
 This state for optimization and/or second-order correction.
 Total Energy, E(TD-HF/TD-DFT) =  -504.797387756
 Copying the excited state density for this state as the 1-particle RhoCI density.

 Excited State   2:      Singlet-A      7.4504 eV  166.41 nm  f=0.0173  <S**2>=0.000
      48 -> 51         0.31798
      48 -> 52        -0.11586
      49 -> 51         0.56969
      49 -> 52        -0.20203

 Excited State   3:      Singlet-A      8.2362 eV  150.54 nm  f=0.0027  <S**2>=0.000
      48 -> 52         0.19205
      48 -> 53         0.17189
      49 -> 50         0.19681
      49 -> 51         0.21518
      49 -> 52         0.49363
      49 -> 53         0.26629

 Excited State   4:      Singlet-A      8.3858 eV  147.85 nm  f=0.0003  <S**2>=0.000
      48 -> 50         0.26415
      48 -> 51        -0.15190
      48 -> 52        -0.21028
      49 -> 50         0.55894
      49 -> 53        -0.18473

 Excited State   5:      Singlet-A      8.4097 eV  147.43 nm  f=0.0076  <S**2>=0.000
      48 -> 50         0.28786
      48 -> 51         0.27365
      48 -> 52         0.40997
      48 -> 53        -0.18252
      49 -> 50         0.12548
      49 -> 51        -0.17874
      49 -> 52        -0.23751
      49 -> 53         0.15785

 Excited State   6:      Singlet-A      8.5522 eV  144.97 nm  f=0.0439  <S**2>=0.000
      48 -> 51         0.28790
      48 -> 55        -0.31157
      48 -> 56         0.15678
      49 -> 51        -0.15472
      49 -> 53        -0.14777
      49 -> 54         0.38009
      49 -> 56         0.18141
      49 -> 59         0.11155

 Excited State   7:      Singlet-A      8.5595 eV  144.85 nm  f=0.0165  <S**2>=0.000
      48 -> 51        -0.27376
      48 -> 52         0.10782
      48 -> 53        -0.14257
      48 -> 54         0.28676
      48 -> 56         0.11354
      49 -> 51         0.14453
      49 -> 54         0.23751
      49 -> 55        -0.28539
      49 -> 56         0.26340
      49 -> 59         0.12251

 Excited State   8:      Singlet-A      8.5757 eV  144.58 nm  f=0.0389  <S**2>=0.000
      48 -> 51         0.35815
      48 -> 52        -0.20305
      48 -> 54         0.21846
      48 -> 55         0.28928
      48 -> 57        -0.19948
      49 -> 51        -0.19249
      49 -> 52         0.16001
      49 -> 54        -0.11422
      49 -> 55        -0.21202
      49 -> 57         0.10179

 Excited State   9:      Singlet-A      8.6957 eV  142.58 nm  f=0.0086  <S**2>=0.000
      48 -> 52        -0.17829
      48 -> 53         0.30966
      48 -> 55         0.11496
      48 -> 56         0.14384
      49 -> 52        -0.29694
      49 -> 53         0.34780
      49 -> 54         0.19982
      49 -> 57         0.21879

 Excited State  10:      Singlet-A      8.7052 eV  142.42 nm  f=0.0309  <S**2>=0.000
      48 -> 52        -0.24699
      48 -> 54         0.31892
      48 -> 55        -0.13532
      48 -> 56        -0.29347
      48 -> 57         0.17470
      48 -> 59         0.15982
      49 -> 53         0.25816
      49 -> 54        -0.10881
      49 -> 55         0.10897
      49 -> 56         0.22003

 The electronic state is 1-A.
 Alpha  occ. eigenvalues --  -14.30918 -14.30892 -10.20079 -10.20017 -10.17478
 Alpha  occ. eigenvalues --  -10.17440 -10.17383 -10.17375 -10.17328 -10.17313
 Alpha  occ. eigenvalues --  -10.17307 -10.17273  -0.87366  -0.87345  -0.80439
 Alpha  occ. eigenvalues --   -0.78347  -0.75172  -0.71328  -0.67180  -0.63028
 Alpha  occ. eigenvalues --   -0.59458  -0.57455  -0.56984  -0.56657  -0.49256
 Alpha  occ. eigenvalues --   -0.48502  -0.47547  -0.45707  -0.43348  -0.43241
 Alpha  occ. eigenvalues --   -0.42328  -0.41681  -0.40469  -0.40144  -0.38652
 Alpha  occ. eigenvalues --   -0.37529  -0.36660  -0.35264  -0.34775  -0.33713
 Alpha  occ. eigenvalues --   -0.33238  -0.32280  -0.32118  -0.31714  -0.31596
 Alpha  occ. eigenvalues --   -0.31492  -0.30081  -0.23535  -0.23333
 Alpha virt. eigenvalues --    0.08399   0.08811   0.09569   0.10835   0.11250
 Alpha virt. eigenvalues --    0.11881   0.12486   0.12967   0.13546   0.14475
 Alpha virt. eigenvalues --    0.15346   0.16297   0.17377   0.17703   0.18167

 Mulliken charges:
               1
     1  N   -0.050281
     2  C   -0.107108
     3  C   -0.160958
     4  C   -0.115076
     5  C   -0.187584
     6  C   -0.175085
     7  C   -0.177009
     8  C   -0.176908
     9  C   -0.178043
    10  C   -0.183225
    11  C   -0.060474
    12  N   -0.639781
    13  H   -0.000378
    14  H   -0.026638
    15  H    0.106587
    16  H    0.118780
    17  H    0.117627
    18  H    0.067761
    19  H    0.068416
    20  H   -0.010480
    21  H    0.088732
    22  H    0.086528
    23  H    0.089151
    24  H    0.089098
    25  H    0.089189
    26  H    0.088872
    27  H    0.089797
    28  H    0.089710
    29  H    0.091175
    30  H    0.091180
    31  H    0.090027
    32  H    0.090033
    33  H    0.100039
    34  H    0.100006
    35  H    0.248163
    36  H    0.248158
 Sum of Mulliken charges =   0.00000

 Dipole moment (field-independent basis, Debye):
    X=              2.5305    Y=             -0.2912    Z=              1.3132  Tot=              2.8657
 Quadrupole moment (field-independent basis, Debye-Ang):
   XX=            -88.4964   YY=            -80.9912   ZZ=            -80.1504
   XY=            -12.9903   XZ=              1.2464   YZ=             -0.6054

 Summary of Natural Population Analysis:

                                       Natural Population
                Natural  -----------------------------------------------
    Atom  No    Charge         Core      Valence    Rydberg      Total
 -----------------------------------------------------------------------
      N    1   -0.38723      1.99935     5.36263    0.02524     7.38723
      C    2   -0.36151      1.99935     4.34287    0.01930     6.36151
      C    3   -0.45450      1.99926     4.44368    0.01156     6.45450
      C    4   -0.47732      1.99932     4.46175    0.01626     6.47732
      C    5   -0.46355      1.99933     4.45168    0.01253     6.46355
      C    6   -0.45380      1.99934     4.44363    0.01083     6.45380
      C    7   -0.45557      1.99934     4.44553    0.01070     6.45557
      C    8   -0.45491      1.99934     4.44492    0.01065     6.45491
      C    9   -0.46042      1.99934     4.45033    0.01075     6.46042
      C   10   -0.47965      1.99932     4.46971    0.01062     6.47965
      C   11   -0.26153      1.99936     4.24736    0.01480     6.26153
      N   12   -0.92434      1.99971     5.90950    0.01514     7.92434
      H   13    0.19854      0.00000     0.71742    0.08404     0.80146
      H   14    0.16928      0.00000     0.74748    0.08325     0.83072
      H   15    0.23294      0.00000     0.74830    0.01877     0.76706
      H   16    0.24790      0.00000     0.73716    0.01494     0.75210
      H   17    0.25117      0.00000     0.74267    0.00615     0.74883
      H   18    0.21153      0.00000     0.76562    0.02285     0.78847
      H   19    0.22030      0.00000     0.77010    0.00960     0.77970
      H   20    0.15471      0.00000     0.80990    0.03539     0.84529
      H   21    0.22823      0.00000     0.76926    0.00251     0.77177
      H   22    0.22559      0.00000     0.77100    0.00342     0.77441
      H   23    0.22838      0.00000     0.76932    0.00231     0.77162
      H   24    0.22821      0.00000     0.76919    0.00261     0.77179
      H   25    0.22820      0.00000     0.76956    0.00224     0.77180
      H   26    0.22812      0.00000     0.76960    0.00229     0.77188
      H   27    0.22855      0.00000     0.76922    0.00223     0.77145
      H   28    0.22849      0.00000     0.76928    0.00223     0.77151
      H   29    0.22923      0.00000     0.76851    0.00226     0.77077
      H   30    0.22923      0.00000     0.76851    0.00226     0.77077
      H   31    0.22759      0.00000     0.76997    0.00244     0.77241
      H   32    0.22759      0.00000     0.76998    0.00243     0.77241
      H   33    0.22254      0.00000     0.77535    0.00211     0.77746
      H   34    0.22249      0.00000     0.77539    0.00211     0.77751
      H   35    0.38277      0.00000     0.61429    0.00294     0.61723
      H   36    0.38276      0.00000     0.61431    0.00293     0.61724
 =======================================================================
   * Total *   -0.00001     23.99235    73.52498    0.48268    98.00001

 Normal termination of Gaussian 16 at Sun Jul 21 12:40:19 2024.
