 Gaussian 16, Revision A.03,

 -------------------------------------------------------
 # opt=CalcFc B3LYP/6-31G** SCRF=(Solvent=water) scf=xqc
 -------------------------------------------------------

 ----------------------------------
 YQLZOAVZWJBZSY-UHFFFAOYSA-N_conf_3
 ----------------------------------
 Symbolic Z-matrix:
 Charge =  0 Multiplicity = 1

 SCF Done:  E(RB3LYP) =  -505.062598206     A.U. after   10 cycles
 SCF Done:  E(RB3LYP) =  -505.066566807     A.U. after    9 cycles
 SCF Done:  E(RB3LYP) =  -505.066650062     A.U. after    8 cycles
 SCF Done:  E(RB3LYP) =  -505.066650998     A.U. after    7 cycles
 SCF Done:  E(RB3LYP) =  -505.066651037     A.U. after    6 cycles
 Optimization completed.
    -- Stationary point found.
 Normal termination of Gaussian 16 at Sun Jul 21 12:13:28 2024.

 ----------------------------------------------------------------------
 # freq B3LYP/6-31G** SCRF=(Solvent=water) volume NMR pop=NPA density=c
 urrent Geom=AllCheck Guess=Read
 ----------------------------------------------------------------------

 Structure from the checkpoint file:  "YQLZOAVZWJBZSY-UHFFFAOYSA-N_conf_3_1.chk"
 ----------------------------------
 YQLZOAVZWJBZSY-UHFFFAOYSA-N_conf_3
 ----------------------------------
 Charge =  0 Multiplicity = 1

 SCF Done:  E(RB3LYP) =  -505.066651037     A.U. after    1 cycles

      1  N    Isotropic =   230.2657   Anisotropy =    27.8168

      2  C    Isotropic =   146.0625   Anisotropy =    40.2144

      3  C    Isotropic =   151.3641   Anisotropy =    41.7622

      4  C    Isotropic =   163.2851   Anisotropy =    22.2959

      5  C    Isotropic =   159.4987   Anisotropy =    23.6860

      6  C    Isotropic =   161.5832   Anisotropy =    18.6149

      7  C    Isotropic =   161.6771   Anisotropy =    18.4948

      8  C    Isotropic =   159.5987   Anisotropy =    23.1588

      9  C    Isotropic =   164.7272   Anisotropy =    19.4599

     10  C    Isotropic =   154.5668   Anisotropy =    26.9389

     11  C    Isotropic =   147.1657   Anisotropy =    25.9597

     12  N    Isotropic =   237.2109   Anisotropy =    40.7505

     13  H    Isotropic =    31.4132   Anisotropy =    12.4596

     14  H    Isotropic =    31.4141   Anisotropy =    12.3589

     15  H    Isotropic =    29.2881   Anisotropy =     5.3314

     16  H    Isotropic =    29.2888   Anisotropy =     5.3585

     17  H    Isotropic =    30.4892   Anisotropy =     4.4542

     18  H    Isotropic =    30.5060   Anisotropy =     4.3091

     19  H    Isotropic =    30.8032   Anisotropy =     5.2151

     20  H    Isotropic =    30.2457   Anisotropy =     5.8250

     21  H    Isotropic =    30.2742   Anisotropy =     6.9106

     22  H    Isotropic =    30.5178   Anisotropy =     5.4014

     23  H    Isotropic =    29.9324   Anisotropy =     7.9367

     24  H    Isotropic =    30.7045   Anisotropy =     5.4555

     25  H    Isotropic =    30.6865   Anisotropy =     5.5493

     26  H    Isotropic =    29.9658   Anisotropy =     7.7160

     27  H    Isotropic =    30.2416   Anisotropy =     7.0940

     28  H    Isotropic =    30.5849   Anisotropy =     5.6491

     29  H    Isotropic =    31.0015   Anisotropy =     5.8701

     30  H    Isotropic =    29.8143   Anisotropy =     6.4080

     31  H    Isotropic =    30.6215   Anisotropy =     6.1127

     32  H    Isotropic =    30.4019   Anisotropy =     6.4993

     33  H    Isotropic =    29.0219   Anisotropy =     8.6567

     34  H    Isotropic =    29.3440   Anisotropy =     7.2659

     35  H    Isotropic =    30.9201   Anisotropy =    11.7093

     36  H    Isotropic =    31.9029   Anisotropy =    13.1705

  Exact polarizability: 172.518  -4.042 149.151  -2.442  -1.974 147.948
 Approx polarizability: 164.709  -3.640 162.546  -2.329  -2.710 165.174

                      1                      2                      3
                      A                      A                      A
 Frequencies --     17.4135                37.8861                43.0083
 Red. masses --      3.8024                 3.8791                 1.9593
 Frc consts  --      0.0007                 0.0033                 0.0021
 IR Inten    --      1.2079                 0.3331                 2.4377

                      4                      5                      6
                      A                      A                      A
 Frequencies --     56.6117                70.6813               106.9514
 Red. masses --      2.3127                 3.2234                 2.5734
 Frc consts  --      0.0044                 0.0095                 0.0173
 IR Inten    --      0.6196                 0.2339                 2.1766

                      7                      8                      9
                      A                      A                      A
 Frequencies --    111.6131               142.6039               151.3208
 Red. masses --      2.2814                 2.0061                 2.5336
 Frc consts  --      0.0167                 0.0240                 0.0342
 IR Inten    --      2.1623                 0.0308                 2.0782

                     10                     11                     12
                      A                      A                      A
 Frequencies --    160.0761               188.6033               238.2834
 Red. masses --      2.5680                 1.8997                 2.1389
 Frc consts  --      0.0388                 0.0398                 0.0716
 IR Inten    --      2.4555                 6.4454                 0.2105

                     13                     14                     15
                      A                      A                      A
 Frequencies --    264.7472               298.3829               299.7384
 Red. masses --      1.9916                 1.1131                 1.6821
 Frc consts  --      0.0822                 0.0584                 0.0890
 IR Inten    --      6.1088                72.7551                37.2068

                     16                     17                     18
                      A                      A                      A
 Frequencies --    324.7729               349.3144               377.8943
 Red. masses --      1.7810                 2.8364                 3.2774
 Frc consts  --      0.1107                 0.2039                 0.2757
 IR Inten    --     30.1324                 4.1445                 0.8595

                     19                     20                     21
                      A                      A                      A
 Frequencies --    470.9715               489.4593               549.8892
 Red. masses --      2.5899                 2.2663                 2.4205
 Frc consts  --      0.3385                 0.3199                 0.4312
 IR Inten    --      1.9696                 7.9762                 1.1616

                     22                     23                     24
                      A                      A                      A
 Frequencies --    728.5343               737.2999               755.3968
 Red. masses --      1.1423                 1.1279                 1.1746
 Frc consts  --      0.3572                 0.3613                 0.3949
 IR Inten    --     12.6116                 0.1732                 7.0222

                     25                     26                     27
                      A                      A                      A
 Frequencies --    775.2409               804.3965               837.8893
 Red. masses --      1.2582                 1.3640                 1.6484
 Frc consts  --      0.4455                 0.5200                 0.6818
 IR Inten    --      4.5373                 6.8519                22.1370

                     28                     29                     30
                      A                      A                      A
 Frequencies --    871.9307               887.7965               903.1038
 Red. masses --      1.6713                 2.0535                 1.7825
 Frc consts  --      0.7486                 0.9536                 0.8566
 IR Inten    --     10.6476                70.6727               170.0066

                     31                     32                     33
                      A                      A                      A
 Frequencies --    910.8603               944.9894               975.2948
 Red. masses --      1.7388                 1.4413                 2.5007
 Frc consts  --      0.8499                 0.7583                 1.4015
 IR Inten    --     83.3936                49.8655                76.4131

                     34                     35                     36
                      A                      A                      A
 Frequencies --    981.4711              1018.0560              1036.6944
 Red. masses --      1.5443                 1.6340                 3.1487
 Frc consts  --      0.8764                 0.9978                 1.9938
 IR Inten    --     30.3003                 0.6398                 1.4086

                     37                     38                     39
                      A                      A                      A
 Frequencies --   1045.6090              1053.4126              1064.2053
 Red. masses --      1.6305                 1.9159                 2.3565
 Frc consts  --      1.0503                 1.2526                 1.5724
 IR Inten    --     36.2751                31.3605                 3.0073

                     40                     41                     42
                      A                      A                      A
 Frequencies --   1079.4871              1084.6409              1091.7787
 Red. masses --      1.9832                 2.3621                 1.4778
 Frc consts  --      1.3616                 1.6373                 1.0378
 IR Inten    --     12.6398                 3.4801                 0.6487

                     43                     44                     45
                      A                      A                      A
 Frequencies --   1094.1510              1118.2658              1144.7441
 Red. masses --      1.7676                 2.0243                 2.0970
 Frc consts  --      1.2468                 1.4914                 1.6190
 IR Inten    --      0.6923                 6.7313                23.6378

                     46                     47                     48
                      A                      A                      A
 Frequencies --   1199.7708              1222.3227              1232.0810
 Red. masses --      1.7665                 1.3178                 1.4871
 Frc consts  --      1.4982                 1.1600                 1.3300
 IR Inten    --      0.0308                 1.2871                 9.6602

                     49                     50                     51
                      A                      A                      A
 Frequencies --   1270.2357              1279.5742              1300.8784
 Red. masses --      1.3482                 1.3724                 1.3174
 Frc consts  --      1.2816                 1.3239                 1.3135
 IR Inten    --      5.4090                 2.2195                 2.6478

                     52                     53                     54
                      A                      A                      A
 Frequencies --   1310.3176              1324.8935              1331.6618
 Red. masses --      1.3052                 1.2273                 1.1321
 Frc consts  --      1.3203                 1.2693                 1.1828
 IR Inten    --      2.1916                 1.6165                 0.5685

                     55                     56                     57
                      A                      A                      A
 Frequencies --   1333.2253              1341.8024              1354.4056
 Red. masses --      1.0973                 1.1037                 1.1756
 Frc consts  --      1.1491                 1.1708                 1.2706
 IR Inten    --      0.0624                 0.1083                 4.4554

                     58                     59                     60
                      A                      A                      A
 Frequencies --   1362.2169              1380.3461              1394.4741
 Red. masses --      1.2643                 1.4141                 1.3125
 Frc consts  --      1.3823                 1.5875                 1.5037
 IR Inten    --      2.7638                 2.3182                22.7090

                     61                     62                     63
                      A                      A                      A
 Frequencies --   1396.5571              1399.7793              1403.3841
 Red. masses --      1.1785                 1.2102                 1.4076
 Frc consts  --      1.3542                 1.3971                 1.6333
 IR Inten    --      0.0274                 0.6049                13.0720

                     64                     65                     66
                      A                      A                      A
 Frequencies --   1409.9449              1413.6753              1414.5793
 Red. masses --      1.5195                 1.5404                 1.5171
 Frc consts  --      1.7797                 1.8138                 1.7887
 IR Inten    --      5.9703                 5.5511                 3.0951

                     67                     68                     69
                      A                      A                      A
 Frequencies --   1482.7693              1483.7489              1485.9146
 Red. masses --      1.0795                 1.0787                 1.0832
 Frc consts  --      1.3983                 1.3992                 1.4091
 IR Inten    --      0.5641                 1.1677                 0.1550

                     70                     71                     72
                      A                      A                      A
 Frequencies --   1489.4524              1493.7012              1497.1537
 Red. masses --      1.0853                 1.0908                 1.0917
 Frc consts  --      1.4186                 1.4339                 1.4417
 IR Inten    --      2.3588                 0.1497                 0.2827

                     73                     74                     75
                      A                      A                      A
 Frequencies --   1503.6778              1507.8947              1513.6232
 Red. masses --      1.0931                 1.0977                 1.0986
 Frc consts  --      1.4562                 1.4706                 1.4830
 IR Inten    --      0.6339                 2.7197                 3.0781

                     76                     77                     78
                      A                      A                      A
 Frequencies --   1517.5449              1660.1219              1660.3876
 Red. masses --      1.0987                 1.0869                 1.0880
 Frc consts  --      1.4908                 1.7649                 1.7672
 IR Inten    --      1.8672                31.7984                29.4101

                     79                     80                     81
                      A                      A                      A
 Frequencies --   3006.0656              3006.4557              3007.2478
 Red. masses --      1.0606                 1.0589                 1.0602
 Frc consts  --      5.6470                 5.6394                 5.6492
 IR Inten    --      8.1748                11.2406                 0.6942

                     82                     83                     84
                      A                      A                      A
 Frequencies --   3009.2301              3012.0132              3015.0445
 Red. masses --      1.0621                 1.0676                 1.0645
 Frc consts  --      5.6668                 5.7067                 5.7013
 IR Inten    --      9.7488                 5.4235               150.5888

                     85                     86                     87
                      A                      A                      A
 Frequencies --   3016.4062              3016.9907              3025.5314
 Red. masses --      1.0630                 1.0627                 1.0601
 Frc consts  --      5.6985                 5.6992                 5.7177
 IR Inten    --     11.4908               158.2845               126.3887

                     88                     89                     90
                      A                      A                      A
 Frequencies --   3025.5846              3035.4935              3040.5734
 Red. masses --      1.0653                 1.0975                 1.0926
 Frc consts  --      5.7456                 5.9582                 5.9516
 IR Inten    --     47.9910                11.7581                54.6762

                     91                     92                     93
                      A                      A                      A
 Frequencies --   3043.4690              3046.5088              3052.5315
 Red. masses --      1.1014                 1.1000                 1.0923
 Frc consts  --      6.0106                 6.0154                 5.9966
 IR Inten    --     11.7925                 8.7131                 0.7412

                     94                     95                     96
                      A                      A                      A
 Frequencies --   3062.5174              3066.4962              3069.8584
 Red. masses --      1.1047                 1.1040                 1.1044
 Frc consts  --      6.1045                 6.1168                 6.1324
 IR Inten    --     29.5382                93.9856               311.2060

                     97                     98                     99
                      A                      A                      A
 Frequencies --   3071.9952              3073.6131              3468.4194
 Red. masses --      1.1043                 1.1012                 1.0502
 Frc consts  --      6.1399                 6.1292                 7.4437
 IR Inten    --     64.0352               246.9517                 1.5989

                    100                    101                    102
                      A                      A                      A
 Frequencies --   3476.2185              3544.9964              3557.3562
 Red. masses --      1.0504                 1.0914                 1.0912
 Frc consts  --      7.4785                 8.0810                 8.1358
 IR Inten    --      1.4802                 0.2735                 0.1240

 - Thermochemistry -
 -------------------
 Temperature   298.150 Kelvin.  Pressure   1.00000 Atm.
 Atom     1 has atomic number  7 and mass  14.00307

 Molecular mass:   172.19395 amu.
 Principal axes and moments of inertia in atomic units:
                           1         2         3
     Eigenvalues --   524.71752********************
           X            0.99999  -0.00354  -0.00102
           Y            0.00354   0.99999   0.00273
           Z            0.00101  -0.00274   1.00000
 This molecule is an asymmetric top.
 Rotational symmetry number  1.
 Warning -- assumption of classical behavior for rotation
           may cause significant error
 Rotational temperatures (Kelvin)      0.16507     0.00865     0.00839
 Rotational constants (GHZ):           3.43945     0.18034     0.17486
 Zero-point vibrational energy     890130.5 (Joules/Mol)
                                  212.74631 (Kcal/Mol)
 Warning -- explicit consideration of  21 degrees of freedom as
           vibrations may cause significant error
 Vibrational temperatures:     25.05    54.51    61.88    81.45   101.69
          (Kelvin)            153.88   160.59   205.18   217.72   230.31
                              271.36   342.84   380.91   429.31   431.26
                              467.28   502.59   543.71   677.62   704.22
                              791.17  1048.20  1060.81  1086.85  1115.40
                             1157.35  1205.54  1254.51  1277.34  1299.36
                             1310.52  1359.63  1403.23  1412.12  1464.76
                             1491.57  1504.40  1515.63  1531.15  1553.14
                             1560.56  1570.83  1574.24  1608.94  1647.03
                             1726.20  1758.65  1772.69  1827.59  1841.02
                             1871.67  1885.25  1906.23  1915.96  1918.21
                             1930.55  1948.69  1959.93  1986.01  2006.34
                             2009.33  2013.97  2019.16  2028.60  2033.96
                             2035.26  2133.37  2134.78  2137.90  2142.99
                             2149.10  2154.07  2163.46  2169.52  2177.77
                             2183.41  2388.55  2388.93  4325.06  4325.62
                             4326.76  4329.61  4333.62  4337.98  4339.94
                             4340.78  4353.06  4353.14  4367.40  4374.71
                             4378.87  4383.25  4391.91  4406.28  4412.00
                             4416.84  4419.92  4422.24  4990.28  5001.50
                             5100.46  5118.24

 Zero-point correction=                           0.339033 (Hartree/Particle)
 Thermal correction to Energy=                    0.355034
 Thermal correction to Enthalpy=                  0.355978
 Thermal correction to Gibbs Free Energy=         0.293246
 Sum of electronic and zero-point Energies=           -504.727618
 Sum of electronic and thermal Energies=              -504.711617
 Sum of electronic and thermal Enthalpies=            -504.710673
 Sum of electronic and thermal Free Energies=         -504.773405

                     E (Thermal)             CV                S
                      KCal/Mol        Cal/Mol-Kelvin    Cal/Mol-Kelvin
 Total                  222.787             57.071            132.030
 Electronic               0.000              0.000              0.000
 Translational            0.889              2.981             41.338
 Rotational               0.889              2.981             32.361
 Vibrational            221.010             51.109             58.332
 Vibration     1          0.593              1.986              6.909
 Vibration     2          0.594              1.982              5.367
 Vibration     3          0.595              1.980              5.115
 Vibration     4          0.596              1.975              4.572
 Vibration     5          0.598              1.968              4.134
 Vibration     6          0.606              1.944              3.324
 Vibration     7          0.607              1.940              3.241
 Vibration     8          0.616              1.911              2.769
 Vibration     9          0.619              1.901              2.656
 Vibration    10          0.622              1.891              2.549
 Vibration    11          0.633              1.856              2.242
 Vibration    12          0.656              1.782              1.816
 Vibration    13          0.671              1.738              1.630
 Vibration    14          0.691              1.677              1.426
 Vibration    15          0.692              1.674              1.418
 Vibration    16          0.709              1.626              1.286
 Vibration    17          0.727              1.577              1.169
 Vibration    18          0.748              1.517              1.048
 Vibration    19          0.828              1.314              0.735
 Vibration    20          0.845              1.273              0.685
 Vibration    21          0.905              1.140              0.544

 Optimization completed.
    -- Stationary point found.
 Normal termination of Gaussian 16 at Sun Jul 21 12:26:47 2024.
 Gaussian 16:  ES64L-G16RevA.03 25-Dec-2016

 ----------------------------------------------------------------------
 # TD(NStates=10, Root=1) B3LYP/6-31G** SCRF=(Solvent=water) volume pop
 =NPA density=current Geom=AllCheck Guess=Read
 ----------------------------------------------------------------------

 Structure from the checkpoint file:  "YQLZOAVZWJBZSY-UHFFFAOYSA-N_conf_3_2.chk"
 ----------------------------------
 YQLZOAVZWJBZSY-UHFFFAOYSA-N_conf_3
 ----------------------------------
 Charge =  0 Multiplicity = 1

                         Standard orientation:
 ---------------------------------------------------------------------
 Center     Atomic      Atomic             Coordinates (Angstroms)
 Number     Number       Type             X           Y           Z
 ---------------------------------------------------------------------
      1          7           0       -6.567182   -0.003694    0.108354
      2          6           0       -5.212569   -0.419504   -0.285885
      3          6           0       -4.067109    0.487158    0.186968
      4          6           0       -2.681882    0.001345   -0.258627
      5          6           0       -1.540363    0.913427    0.212596
      6          6           0       -0.140030    0.503924   -0.274788
      7          6           0        0.374869   -0.822640    0.303848
      8          6           0        1.774165   -1.233031   -0.185704
      9          6           0        2.917561   -0.322307    0.283668
     10          6           0        4.298968   -0.808433   -0.172328
     11          6           0        5.469540    0.072801    0.297285
     12          7           0        5.503934    1.453811   -0.208160
     13          1           0       -6.730176    0.943633   -0.231485
     14          1           0       -6.602761    0.073587    1.124336
     15          1           0       -5.050501   -1.437296    0.092594
     16          1           0       -5.189505   -0.492499   -1.381133
     17          1           0       -4.239318    1.505396   -0.190976
     18          1           0       -4.097455    0.556488    1.284068
     19          1           0       -2.657154   -0.067272   -1.355934
     20          1           0       -2.525583   -1.019508    0.113817
     21          1           0       -1.746338    1.936217   -0.131128
     22          1           0       -1.542222    0.957835    1.311278
     23          1           0        0.561588    1.307849   -0.020412
     24          1           0       -0.143739    0.440356   -1.372869
     25          1           0        0.379967   -0.758739    1.401885
     26          1           0       -0.327360   -1.626374    0.050587
     27          1           0        1.979915   -2.256432    0.156445
     28          1           0        1.774232   -1.276558   -1.284473
     29          1           0        2.901005   -0.258973    1.381770
     30          1           0        2.752506    0.697887   -0.085096
     31          1           0        4.320828   -0.872976   -1.270230
     32          1           0        4.463354   -1.830561    0.197488
     33          1           0        6.412519   -0.408738    0.010081
     34          1           0        5.469811    0.121130    1.394256
     35          1           0        4.661789    1.943498    0.088045
     36          1           0        5.458426    1.434790   -1.226472
 ---------------------------------------------------------------------

 SCF Done:  E(RB3LYP) =  -505.066651037     A.U. after    1 cycles

 Excitation energies and oscillator strengths:

 Excited State   1:      Singlet-A      7.3908 eV  167.75 nm  f=0.0243  <S**2>=0.000
      48 -> 50         0.65616
      48 -> 52        -0.13297
      49 -> 50        -0.17747
 This state for optimization and/or second-order correction.
 Total Energy, E(TD-HF/TD-DFT) =  -504.795044201
 Copying the excited state density for this state as the 1-particle RhoCI density.

 Excited State   2:      Singlet-A      7.4506 eV  166.41 nm  f=0.0173  <S**2>=0.000
      48 -> 51         0.17103
      49 -> 51         0.66115
      49 -> 52        -0.11066

 Excited State   3:      Singlet-A      8.2346 eV  150.57 nm  f=0.0018  <S**2>=0.000
      48 -> 52         0.10791
      49 -> 50         0.37330
      49 -> 51         0.15853
      49 -> 52         0.50763
      49 -> 54         0.18167

 Excited State   4:      Singlet-A      8.3588 eV  148.33 nm  f=0.0092  <S**2>=0.000
      48 -> 50         0.15107
      49 -> 50         0.56579
      49 -> 52        -0.32155
      49 -> 54        -0.18688

 Excited State   5:      Singlet-A      8.4363 eV  146.97 nm  f=0.0166  <S**2>=0.000
      48 -> 50         0.12173
      48 -> 52         0.52152
      48 -> 53        -0.15939
      48 -> 54        -0.32367
      48 -> 57        -0.15370
      49 -> 52        -0.12431
      49 -> 54         0.10344

 Excited State   6:      Singlet-A      8.4927 eV  145.99 nm  f=0.0318  <S**2>=0.000
      48 -> 50         0.12486
      48 -> 51        -0.12075
      48 -> 52         0.27030
      48 -> 53         0.53186
      48 -> 55        -0.11435
      48 -> 56         0.17764
      48 -> 57         0.12723
      49 -> 53        -0.17206

 Excited State   7:      Singlet-A      8.5323 eV  145.31 nm  f=0.0039  <S**2>=0.000
      48 -> 51         0.66744
      49 -> 51        -0.17075

 Excited State   8:      Singlet-A      8.5480 eV  145.05 nm  f=0.0230  <S**2>=0.000
      48 -> 53         0.11451
      49 -> 53         0.33632
      49 -> 54         0.10815
      49 -> 55         0.40641
      49 -> 56        -0.33363
      49 -> 57         0.11325
      49 -> 59         0.17813
      49 -> 61        -0.10225

 Excited State   9:      Singlet-A      8.7119 eV  142.32 nm  f=0.0447  <S**2>=0.000
      48 -> 52        -0.18663
      48 -> 53         0.17218
      48 -> 54        -0.16001
      48 -> 55         0.37132
      48 -> 56         0.31022
      48 -> 57        -0.29681
      48 -> 59         0.17940
      48 -> 60        -0.11168

 Excited State  10:      Singlet-A      8.8178 eV  140.61 nm  f=0.0334  <S**2>=0.000
      48 -> 54         0.13189
      49 -> 52        -0.29762
      49 -> 53        -0.12364
      49 -> 54         0.53063
      49 -> 57        -0.19155
      49 -> 58         0.16900

 The electronic state is 1-A.
 Alpha  occ. eigenvalues --  -14.30923 -14.30893 -10.20077 -10.20013 -10.17427
 Alpha  occ. eigenvalues --  -10.17427 -10.17406 -10.17372 -10.17310 -10.17309
 Alpha  occ. eigenvalues --  -10.17288 -10.17270  -0.87371  -0.87344  -0.80445
 Alpha  occ. eigenvalues --   -0.78218  -0.74949  -0.71276  -0.66907  -0.63766
 Alpha  occ. eigenvalues --   -0.59621  -0.58229  -0.57085  -0.55392  -0.49184
 Alpha  occ. eigenvalues --   -0.48514  -0.46211  -0.45485  -0.44654  -0.43147
 Alpha  occ. eigenvalues --   -0.42402  -0.41349  -0.40671  -0.40039  -0.38452
 Alpha  occ. eigenvalues --   -0.37980  -0.37446  -0.35440  -0.34485  -0.33676
 Alpha  occ. eigenvalues --   -0.33126  -0.32438  -0.32428  -0.31787  -0.31372
 Alpha  occ. eigenvalues --   -0.30590  -0.29870  -0.23496  -0.23392
 Alpha virt. eigenvalues --    0.08298   0.08853   0.09688   0.10682   0.11411
 Alpha virt. eigenvalues --    0.11704   0.12343   0.13124   0.14030   0.14559
 Alpha virt. eigenvalues --    0.15519   0.16370   0.17270   0.17284   0.18189

 Mulliken charges:
               1
     1  N   -0.639747
     2  C   -0.061259
     3  C   -0.183035
     4  C   -0.174712
     5  C   -0.181150
     6  C   -0.171181
     7  C   -0.175926
     8  C   -0.191415
     9  C   -0.108041
    10  C   -0.164522
    11  C   -0.109689
    12  N   -0.052758
    13  H    0.248074
    14  H    0.248005
    15  H    0.099926
    16  H    0.099833
    17  H    0.089489
    18  H    0.089814
    19  H    0.089945
    20  H    0.095557
    21  H    0.086627
    22  H    0.088175
    23  H    0.082344
    24  H    0.084524
    25  H    0.087042
    26  H    0.091983
    27  H    0.086071
    28  H    0.085530
    29  H    0.067312
    30  H   -0.013485
    31  H    0.071540
    32  H    0.120635
    33  H    0.122938
    34  H    0.109200
    35  H   -0.028074
    36  H    0.010426
 Sum of Mulliken charges =  -0.00000

 Dipole moment (field-independent basis, Debye):
    X=              2.9621    Y=             -0.0819    Z=              1.1824  Tot=              3.1904
 Quadrupole moment (field-independent basis, Debye-Ang):
   XX=            -81.0556   YY=            -81.4339   ZZ=            -80.3841
   XY=            -12.7958   XZ=             -1.3971   YZ=             -0.6660

 Summary of Natural Population Analysis:

                                       Natural Population
                Natural  -----------------------------------------------
    Atom  No    Charge         Core      Valence    Rydberg      Total
 -----------------------------------------------------------------------
      N    1   -0.92453      1.99971     5.90969    0.01514     7.92453
      C    2   -0.26153      1.99936     4.24735    0.01482     6.26153
      C    3   -0.47930      1.99933     4.46933    0.01065     6.47930
      C    4   -0.46425      1.99933     4.45412    0.01080     6.46425
      C    5   -0.45656      1.99934     4.44616    0.01106     6.45656
      C    6   -0.46125      1.99933     4.45071    0.01121     6.46125
      C    7   -0.45817      1.99933     4.44782    0.01102     6.45817
      C    8   -0.46431      1.99933     4.45239    0.01259     6.46431
      C    9   -0.48098      1.99931     4.46558    0.01609     6.48098
      C   10   -0.45412      1.99927     4.44337    0.01148     6.45412
      C   11   -0.36093      1.99934     4.34238    0.01921     6.36093
      N   12   -0.38577      1.99935     5.36126    0.02515     7.38577
      H   13    0.38271      0.00000     0.61435    0.00294     0.61729
      H   14    0.38267      0.00000     0.61439    0.00294     0.61733
      H   15    0.22242      0.00000     0.77547    0.00211     0.77758
      H   16    0.22242      0.00000     0.77547    0.00212     0.77758
      H   17    0.22709      0.00000     0.77046    0.00246     0.77291
      H   18    0.22747      0.00000     0.77009    0.00244     0.77253
      H   19    0.22833      0.00000     0.76936    0.00232     0.77167
      H   20    0.22903      0.00000     0.76890    0.00207     0.77097
      H   21    0.23378      0.00000     0.76409    0.00213     0.76622
      H   22    0.22792      0.00000     0.76982    0.00225     0.77208
      H   23    0.22752      0.00000     0.76763    0.00485     0.77248
      H   24    0.22580      0.00000     0.77153    0.00266     0.77420
      H   25    0.22721      0.00000     0.77043    0.00236     0.77279
      H   26    0.23489      0.00000     0.76329    0.00182     0.76511
      H   27    0.23374      0.00000     0.76401    0.00225     0.76626
      H   28    0.22518      0.00000     0.77137    0.00345     0.77482
      H   29    0.21973      0.00000     0.77094    0.00933     0.78027
      H   30    0.14693      0.00000     0.81513    0.03795     0.85307
      H   31    0.21361      0.00000     0.76478    0.02161     0.78639
      H   32    0.25342      0.00000     0.74114    0.00544     0.74658
      H   33    0.25043      0.00000     0.73564    0.01393     0.74957
      H   34    0.23440      0.00000     0.74747    0.01813     0.76560
      H   35    0.16853      0.00000     0.74832    0.08315     0.83147
      H   36    0.20619      0.00000     0.71167    0.08214     0.79381
 =======================================================================
   * Total *   -0.00028     23.99233    73.52589    0.48205    98.00028

 Normal termination of Gaussian 16 at Sun Jul 21 12:43:15 2024.
