 Gaussian 16, Revision A.03,

 -------------------------------------------------------
 # opt=CalcFc B3LYP/6-31G** SCRF=(Solvent=water) scf=xqc
 -------------------------------------------------------

 ----------------------------------
 YQLZOAVZWJBZSY-UHFFFAOYSA-N_conf_0
 ----------------------------------
 Symbolic Z-matrix:
 Charge =  0 Multiplicity = 1

 SCF Done:  E(RB3LYP) =  -505.055859086     A.U. after   11 cycles
 SCF Done:  E(RB3LYP) =  -505.059762525     A.U. after    9 cycles
 SCF Done:  E(RB3LYP) =  -505.059909929     A.U. after    9 cycles
 SCF Done:  E(RB3LYP) =  -505.059912681     A.U. after    8 cycles
 SCF Done:  E(RB3LYP) =  -505.059919364     A.U. after    7 cycles
 SCF Done:  E(RB3LYP) =  -505.059919546     A.U. after    6 cycles
 Optimization completed.
    -- Stationary point found.
 Normal termination of Gaussian 16 at Sun Jul 21 12:18:24 2024.

 ----------------------------------------------------------------------
 # freq B3LYP/6-31G** SCRF=(Solvent=water) volume NMR pop=NPA density=c
 urrent Geom=AllCheck Guess=Read
 ----------------------------------------------------------------------

 Structure from the checkpoint file:  "YQLZOAVZWJBZSY-UHFFFAOYSA-N_conf_0_1.chk"
 ----------------------------------
 YQLZOAVZWJBZSY-UHFFFAOYSA-N_conf_0
 ----------------------------------
 Charge =  0 Multiplicity = 1

 SCF Done:  E(RB3LYP) =  -505.059919546     A.U. after    1 cycles

      1  N    Isotropic =   228.7301   Anisotropy =    29.9828

      2  C    Isotropic =   144.8489   Anisotropy =    43.8439

      3  C    Isotropic =   152.9056   Anisotropy =    34.8975

      4  C    Isotropic =   164.5308   Anisotropy =    12.9223

      5  C    Isotropic =   157.0816   Anisotropy =    24.3635

      6  C    Isotropic =   162.1163   Anisotropy =    21.5535

      7  C    Isotropic =   163.5854   Anisotropy =    28.1470

      8  C    Isotropic =   166.2030   Anisotropy =    19.3978

      9  C    Isotropic =   170.1872   Anisotropy =    18.1025

     10  C    Isotropic =   164.3159   Anisotropy =    21.3173

     11  C    Isotropic =   151.9193   Anisotropy =    36.4753

     12  N    Isotropic =   236.1329   Anisotropy =    33.4170

     13  H    Isotropic =    31.3941   Anisotropy =    11.7327

     14  H    Isotropic =    31.4761   Anisotropy =    13.1683

     15  H    Isotropic =    29.4200   Anisotropy =     5.5618

     16  H    Isotropic =    28.9865   Anisotropy =     7.8721

     17  H    Isotropic =    30.5189   Anisotropy =     3.0579

     18  H    Isotropic =    30.2275   Anisotropy =     7.0169

     19  H    Isotropic =    30.0997   Anisotropy =     9.4972

     20  H    Isotropic =    30.6437   Anisotropy =     6.2102

     21  H    Isotropic =    30.4631   Anisotropy =     5.5661

     22  H    Isotropic =    30.3620   Anisotropy =     7.0365

     23  H    Isotropic =    29.8650   Anisotropy =     7.1842

     24  H    Isotropic =    30.9550   Anisotropy =     4.9875

     25  H    Isotropic =    30.5952   Anisotropy =     7.6054

     26  H    Isotropic =    30.2507   Anisotropy =     4.7002

     27  H    Isotropic =    29.8988   Anisotropy =     7.7122

     28  H    Isotropic =    30.4579   Anisotropy =     8.3263

     29  H    Isotropic =    29.7576   Anisotropy =     8.0873

     30  H    Isotropic =    30.3122   Anisotropy =     7.4238

     31  H    Isotropic =    30.4393   Anisotropy =     8.5069

     32  H    Isotropic =    30.1194   Anisotropy =     6.5694

     33  H    Isotropic =    29.0032   Anisotropy =     4.8170

     34  H    Isotropic =    28.8518   Anisotropy =     8.7434

     35  H    Isotropic =    31.1487   Anisotropy =    15.7023

     36  H    Isotropic =    31.8646   Anisotropy =    13.2827

  Exact polarizability: 166.397   0.426 155.842   0.681  -1.366 145.208
 Approx polarizability: 167.279  -0.125 165.114   0.192  -1.338 158.981

                      1                      2                      3
                      A                      A                      A
 Frequencies --     22.7648                31.6026                37.0169
 Red. masses --      3.5848                 3.6319                 2.5050
 Frc consts  --      0.0011                 0.0021                 0.0020
 IR Inten    --      0.3365                 0.2563                 0.9698

                      4                      5                      6
                      A                      A                      A
 Frequencies --     58.8109                69.0143                98.4181
 Red. masses --      2.8013                 2.2213                 3.1598
 Frc consts  --      0.0057                 0.0062                 0.0180
 IR Inten    --      2.3826                 1.5447                 1.9383

                      7                      8                      9
                      A                      A                      A
 Frequencies --    121.7951               139.9607               157.7878
 Red. masses --      2.0655                 2.5964                 2.1300
 Frc consts  --      0.0181                 0.0300                 0.0312
 IR Inten    --      0.1986                 1.4949                 5.5323

                     10                     11                     12
                      A                      A                      A
 Frequencies --    214.8635               235.0143               264.7321
 Red. masses --      2.7018                 1.4787                 2.2212
 Frc consts  --      0.0735                 0.0481                 0.0917
 IR Inten    --      0.6526                27.1357                28.3273

                     13                     14                     15
                      A                      A                      A
 Frequencies --    284.6321               295.5764               300.3220
 Red. masses --      1.5545                 1.6922                 1.3276
 Frc consts  --      0.0742                 0.0871                 0.0705
 IR Inten    --     17.9083                24.2602                54.6245

                     16                     17                     18
                      A                      A                      A
 Frequencies --    325.4659               394.7064               416.3051
 Red. masses --      2.0965                 1.9190                 3.0863
 Frc consts  --      0.1308                 0.1761                 0.3152
 IR Inten    --      0.3201                 2.6363                 1.3550

                     19                     20                     21
                      A                      A                      A
 Frequencies --    466.5872               490.3208               543.9397
 Red. masses --      2.0425                 2.0305                 2.4485
 Frc consts  --      0.2620                 0.2876                 0.4268
 IR Inten    --      2.7296                 2.0729                 7.9733

                     22                     23                     24
                      A                      A                      A
 Frequencies --    715.1161               741.2610               756.0294
 Red. masses --      1.2583                 1.2062                 1.2783
 Frc consts  --      0.3791                 0.3905                 0.4305
 IR Inten    --     15.7771                 5.3602                 2.7217

                     25                     26                     27
                      A                      A                      A
 Frequencies --    776.2911               808.2856               835.2517
 Red. masses --      1.7530                 1.7543                 1.6909
 Frc consts  --      0.6224                 0.6753                 0.6950
 IR Inten    --      7.5433                 4.5675                 8.2375

                     28                     29                     30
                      A                      A                      A
 Frequencies --    854.1665               888.0770               906.9330
 Red. masses --      1.9066                 1.5503                 1.9154
 Frc consts  --      0.8196                 0.7204                 0.9282
 IR Inten    --     59.1292               106.7423               122.5335

                     31                     32                     33
                      A                      A                      A
 Frequencies --    921.6252               943.8541               963.1864
 Red. masses --      1.9178                 1.7794                 1.6217
 Frc consts  --      0.9598                 0.9340                 0.8864
 IR Inten    --     60.8662                16.0759                27.9143

                     34                     35                     36
                      A                      A                      A
 Frequencies --    978.9623               995.2777              1010.4183
 Red. masses --      1.4816                 1.9776                 1.7889
 Frc consts  --      0.8366                 1.1542                 1.0760
 IR Inten    --     10.2570                42.9002                23.1134

                     37                     38                     39
                      A                      A                      A
 Frequencies --   1029.2628              1064.9417              1070.9673
 Red. masses --      1.6520                 1.8163                 2.1024
 Frc consts  --      1.0311                 1.2136                 1.4208
 IR Inten    --      9.4915                 8.2941                 5.8507

                     40                     41                     42
                      A                      A                      A
 Frequencies --   1081.2348              1088.0091              1103.2217
 Red. masses --      1.8285                 2.4417                 1.5647
 Frc consts  --      1.2595                 1.7030                 1.1220
 IR Inten    --      7.7138                 1.3083                 1.9736

                     43                     44                     45
                      A                      A                      A
 Frequencies --   1107.6112              1121.9546              1136.8184
 Red. masses --      1.5498                 1.7580                 2.2074
 Frc consts  --      1.1202                 1.3039                 1.6808
 IR Inten    --      4.3624                 2.4319                 9.2642

                     46                     47                     48
                      A                      A                      A
 Frequencies --   1185.8109              1195.9022              1221.8490
 Red. masses --      1.4980                 1.3498                 1.4380
 Frc consts  --      1.2411                 1.1374                 1.2649
 IR Inten    --      0.9072                 0.8572                 5.9127

                     49                     50                     51
                      A                      A                      A
 Frequencies --   1247.9070              1279.2621              1309.7164
 Red. masses --      1.2896                 1.3096                 1.2823
 Frc consts  --      1.1832                 1.2627                 1.2960
 IR Inten    --      5.2071                 2.5497                 3.6983

                     52                     53                     54
                      A                      A                      A
 Frequencies --   1312.5036              1324.3893              1327.0677
 Red. masses --      1.2310                 1.1892                 1.2658
 Frc consts  --      1.2494                 1.2290                 1.3135
 IR Inten    --      8.2070                 0.9691                 0.7636

                     55                     56                     57
                      A                      A                      A
 Frequencies --   1336.2153              1343.6152              1345.7370
 Red. masses --      1.1118                 1.0862                 1.2160
 Frc consts  --      1.1695                 1.1553                 1.2975
 IR Inten    --      0.5538                 1.2770                 9.4881

                     58                     59                     60
                      A                      A                      A
 Frequencies --   1376.3516              1383.3293              1385.4558
 Red. masses --      1.3285                 1.5041                 1.3533
 Frc consts  --      1.4828                 1.6958                 1.5305
 IR Inten    --     20.2225                 3.9787                 5.4369

                     61                     62                     63
                      A                      A                      A
 Frequencies --   1397.6959              1399.7198              1404.3990
 Red. masses --      1.2374                 1.3972                 1.3882
 Frc consts  --      1.4243                 1.6129                 1.6132
 IR Inten    --      0.6547                 3.7557                 5.8725

                     64                     65                     66
                      A                      A                      A
 Frequencies --   1409.4577              1415.0584              1433.8474
 Red. masses --      1.4199                 1.5399                 1.4366
 Frc consts  --      1.6619                 1.8167                 1.7402
 IR Inten    --      0.7836                 4.8890                13.1382

                     67                     68                     69
                      A                      A                      A
 Frequencies --   1482.1283              1486.6227              1489.4988
 Red. masses --      1.0804                 1.0866                 1.0796
 Frc consts  --      1.3983                 1.4149                 1.4112
 IR Inten    --      0.1259                 0.8221                 2.8846

                     70                     71                     72
                      A                      A                      A
 Frequencies --   1493.7286              1496.7184              1498.5596
 Red. masses --      1.0846                 1.0844                 1.0883
 Frc consts  --      1.4258                 1.4313                 1.4400
 IR Inten    --      5.7958                 2.6411                 4.8275

                     73                     74                     75
                      A                      A                      A
 Frequencies --   1503.6446              1510.2992              1515.4453
 Red. masses --      1.0990                 1.0922                 1.0978
 Frc consts  --      1.4639                 1.4678                 1.4855
 IR Inten    --      5.3838                 1.2493                 3.3616

                     76                     77                     78
                      A                      A                      A
 Frequencies --   1525.6795              1654.2663              1660.9145
 Red. masses --      1.0872                 1.0876                 1.0868
 Frc consts  --      1.4910                 1.7536                 1.7664
 IR Inten    --      5.0124                36.1352                31.7402

                     79                     80                     81
                      A                      A                      A
 Frequencies --   2959.4490              3007.4778              3010.6989
 Red. masses --      1.0737                 1.0607                 1.0598
 Frc consts  --      5.5406                 5.6525                 5.6599
 IR Inten    --    135.1855                 9.3692                46.3148

                     82                     83                     84
                      A                      A                      A
 Frequencies --   3012.0841              3014.5812              3017.2006
 Red. masses --      1.0626                 1.0680                 1.0654
 Frc consts  --      5.6798                 5.7186                 5.7142
 IR Inten    --     11.1365                18.1115                80.0134

                     85                     86                     87
                      A                      A                      A
 Frequencies --   3017.7581              3020.9069              3032.3348
 Red. masses --      1.0641                 1.0660                 1.0689
 Frc consts  --      5.7096                 5.7316                 5.7910
 IR Inten    --     97.8565                46.5446                62.4190

                     88                     89                     90
                      A                      A                      A
 Frequencies --   3038.9191              3041.7155              3047.1080
 Red. masses --      1.0754                 1.0880                 1.0959
 Frc consts  --      5.8515                 5.9310                 5.9949
 IR Inten    --     33.9939                 8.8943                39.2157

                     91                     92                     93
                      A                      A                      A
 Frequencies --   3049.0411              3054.7521              3058.2786
 Red. masses --      1.0973                 1.0912                 1.0958
 Frc consts  --      6.0105                 5.9992                 6.0386
 IR Inten    --     86.0083                36.4285                76.2790

                     94                     95                     96
                      A                      A                      A
 Frequencies --   3060.2734              3067.9441              3074.6912
 Red. masses --      1.0976                 1.0952                 1.1014
 Frc consts  --      6.0566                 6.0735                 6.1350
 IR Inten    --     95.4497               146.0188               136.1306

                     97                     98                     99
                      A                      A                      A
 Frequencies --   3082.7891              3088.4044              3467.5724
 Red. masses --      1.1002                 1.1006                 1.0502
 Frc consts  --      6.1607                 6.1850                 7.4398
 IR Inten    --    141.2308                89.6870                 1.8113

                    100                    101                    102
                      A                      A                      A
 Frequencies --   3475.4805              3544.2744              3555.0063
 Red. masses --      1.0509                 1.0914                 1.0913
 Frc consts  --      7.4790                 8.0777                 8.1262
 IR Inten    --      1.6121                 0.3224                 0.0400

 - Thermochemistry -
 -------------------
 Temperature   298.150 Kelvin.  Pressure   1.00000 Atm.
 Atom     1 has atomic number  7 and mass  14.00307

 Molecular mass:   172.19395 amu.
 Principal axes and moments of inertia in atomic units:
                           1         2         3
     Eigenvalues --  1354.774555999.480346762.94291
           X            0.99999   0.00346  -0.00034
           Y           -0.00346   0.99995  -0.00911
           Z            0.00030   0.00911   0.99996
 This molecule is an asymmetric top.
 Rotational symmetry number  1.
 Warning -- assumption of classical behavior for rotation
           may cause significant error
 Rotational temperatures (Kelvin)      0.06393     0.01444     0.01281
 Rotational constants (GHZ):           1.33213     0.30082     0.26686
 Zero-point vibrational energy     891337.1 (Joules/Mol)
                                  213.03469 (Kcal/Mol)
 Warning -- explicit consideration of  21 degrees of freedom as
           vibrations may cause significant error
 Vibrational temperatures:     32.75    45.47    53.26    84.62    99.30
          (Kelvin)            141.60   175.24   201.37   227.02   309.14
                              338.13   380.89   409.52   425.27   432.10
                              468.27   567.89   598.97   671.31   705.46
                              782.61  1028.89  1066.51  1087.76  1116.91
                             1162.94  1201.74  1228.96  1277.74  1304.87
                             1326.01  1358.00  1385.81  1408.51  1431.98
                             1453.77  1480.88  1532.21  1540.88  1555.66
                             1565.40  1587.29  1593.61  1614.24  1635.63
                             1706.12  1720.64  1757.97  1795.46  1840.57
                             1884.39  1888.40  1905.50  1909.35  1922.52
                             1933.16  1936.22  1980.26  1990.30  1993.36
                             2010.97  2013.88  2020.62  2027.90  2035.95
                             2062.99  2132.45  2138.92  2143.06  2149.14
                             2153.44  2156.09  2163.41  2172.98  2180.39
                             2195.11  2380.12  2389.69  4257.99  4327.09
                             4331.72  4333.72  4337.31  4341.08  4341.88
                             4346.41  4362.85  4372.33  4376.35  4384.11
                             4386.89  4395.11  4400.18  4403.05  4414.09
                             4423.79  4435.45  4443.53  4989.06  5000.44
                             5099.42  5114.86

 Zero-point correction=                           0.339492 (Hartree/Particle)
 Thermal correction to Energy=                    0.355212
 Thermal correction to Enthalpy=                  0.356156
 Thermal correction to Gibbs Free Energy=         0.294118
 Sum of electronic and zero-point Energies=           -504.720427
 Sum of electronic and thermal Energies=              -504.704708
 Sum of electronic and thermal Enthalpies=            -504.703763
 Sum of electronic and thermal Free Energies=         -504.765801

                     E (Thermal)             CV                S
                      KCal/Mol        Cal/Mol-Kelvin    Cal/Mol-Kelvin
 Total                  222.899             56.783            130.570
 Electronic               0.000              0.000              0.000
 Translational            0.889              2.981             41.338
 Rotational               0.889              2.981             32.375
 Vibrational            221.121             50.822             56.857
 Vibration     1          0.593              1.985              6.377
 Vibration     2          0.594              1.983              5.726
 Vibration     3          0.594              1.982              5.413
 Vibration     4          0.596              1.974              4.497
 Vibration     5          0.598              1.969              4.181
 Vibration     6          0.604              1.950              3.485
 Vibration     7          0.609              1.931              3.072
 Vibration     8          0.615              1.913              2.804
 Vibration     9          0.621              1.894              2.576
 Vibration    10          0.645              1.818              2.002
 Vibration    11          0.655              1.787              1.840
 Vibration    12          0.671              1.738              1.630
 Vibration    13          0.683              1.702              1.506
 Vibration    14          0.690              1.682              1.442
 Vibration    15          0.693              1.673              1.415
 Vibration    16          0.710              1.625              1.282
 Vibration    17          0.762              1.481              0.982
 Vibration    18          0.780              1.435              0.905
 Vibration    19          0.824              1.324              0.747
 Vibration    20          0.846              1.271              0.683
 Vibration    21          0.899              1.153              0.557

                           ! Non-Optimized Parameters !
 Normal termination of Gaussian 16 at Sun Jul 21 12:33:44 2024.
 Gaussian 16:  ES64L-G16RevA.03 25-Dec-2016

 ----------------------------------------------------------------------
 # TD(NStates=10, Root=1) B3LYP/6-31G** SCRF=(Solvent=water) volume pop
 =NPA density=current Geom=AllCheck Guess=Read
 ----------------------------------------------------------------------

 Structure from the checkpoint file:  "YQLZOAVZWJBZSY-UHFFFAOYSA-N_conf_0_2.chk"
 ----------------------------------
 YQLZOAVZWJBZSY-UHFFFAOYSA-N_conf_0
 ----------------------------------
 Charge =  0 Multiplicity = 1

                         Standard orientation:
 ---------------------------------------------------------------------
 Center     Atomic      Atomic             Coordinates (Angstroms)
 Number     Number       Type             X           Y           Z
 ---------------------------------------------------------------------
      1          7           0       -3.809675    2.479242    0.193193
      2          6           0       -3.441546    1.091658    0.511845
      3          6           0       -3.509096    0.101334   -0.663674
      4          6           0       -3.150807   -1.359355   -0.309416
      5          6           0       -1.680110   -1.763325   -0.515781
      6          6           0       -0.650106   -1.033178    0.356654
      7          6           0        0.773697   -1.579059    0.177377
      8          6           0        1.830115   -0.932256    1.090048
      9          6           0        2.071674    0.574351    0.884796
     10          6           0        2.552271    0.985844   -0.517261
     11          6           0        3.889472    0.378417   -0.958728
     12          7           0        4.974498    0.725565   -0.026701
     13          1           0       -3.194520    2.820039   -0.544934
     14          1           0       -4.741777    2.484266   -0.220226
     15          1           0       -4.109923    0.741447    1.309505
     16          1           0       -2.434079    1.104794    0.942037
     17          1           0       -2.857443    0.458002   -1.474434
     18          1           0       -4.532096    0.135641   -1.062297
     19          1           0       -3.764758   -2.029754   -0.923063
     20          1           0       -3.441648   -1.562201    0.731540
     21          1           0       -1.418289   -1.618696   -1.573923
     22          1           0       -1.592515   -2.842926   -0.329800
     23          1           0       -0.663640    0.037941    0.122470
     24          1           0       -0.939639   -1.120803    1.414193
     25          1           0        0.762914   -2.660023    0.373781
     26          1           0        1.070988   -1.471865   -0.874814
     27          1           0        2.779472   -1.467950    0.963851
     28          1           0        1.535255   -1.093244    2.136277
     29          1           0        2.815425    0.904540    1.618455
     30          1           0        1.151820    1.127849    1.112194
     31          1           0        2.640067    2.081234   -0.548548
     32          1           0        1.796293    0.727437   -1.269605
     33          1           0        3.811424   -0.715153   -0.984419
     34          1           0        4.087532    0.697221   -1.996289
     35          1           0        5.843007    0.309531   -0.357574
     36          1           0        5.128988    1.732446   -0.064975
 ---------------------------------------------------------------------

 SCF Done:  E(RB3LYP) =  -505.059919546     A.U. after    1 cycles

 Excitation energies and oscillator strengths:

 Excited State   1:      Singlet-A      7.2488 eV  171.04 nm  f=0.0147  <S**2>=0.000
      49 -> 50         0.60157
      49 -> 51        -0.29715
      49 -> 52        -0.12999
      49 -> 53        -0.10420
      49 -> 54        -0.11855
 This state for optimization and/or second-order correction.
 Total Energy, E(TD-HF/TD-DFT) =  -504.793530456
 Copying the excited state density for this state as the 1-particle RhoCI density.

 Excited State   2:      Singlet-A      7.3656 eV  168.33 nm  f=0.0133  <S**2>=0.000
      48 -> 50         0.41424
      48 -> 51         0.53762
      48 -> 52        -0.14359
      48 -> 53        -0.10686

 Excited State   3:      Singlet-A      7.9684 eV  155.59 nm  f=0.0107  <S**2>=0.000
      48 -> 50         0.54998
      48 -> 51        -0.31716
      48 -> 52         0.22966
      48 -> 53         0.18614

 Excited State   4:      Singlet-A      8.1087 eV  152.90 nm  f=0.0025  <S**2>=0.000
      49 -> 50         0.36658
      49 -> 51         0.46928
      49 -> 52         0.20613
      49 -> 53         0.18877
      49 -> 54         0.22716

 Excited State   5:      Singlet-A      8.2738 eV  149.85 nm  f=0.0026  <S**2>=0.000
      48 -> 51         0.21630
      48 -> 52         0.59715
      48 -> 53        -0.14231
      48 -> 54        -0.21606

 Excited State   6:      Singlet-A      8.3591 eV  148.32 nm  f=0.0084  <S**2>=0.000
      49 -> 51        -0.35121
      49 -> 52         0.27680
      49 -> 54         0.47953
      49 -> 55         0.15747
      49 -> 56         0.16096

 Excited State   7:      Singlet-A      8.4830 eV  146.16 nm  f=0.0176  <S**2>=0.000
      48 -> 50        -0.12057
      48 -> 51         0.23081
      48 -> 53         0.59363
      48 -> 55        -0.13897
      48 -> 57        -0.18925

 Excited State   8:      Singlet-A      8.6231 eV  143.78 nm  f=0.0087  <S**2>=0.000
      49 -> 51        -0.23938
      49 -> 52         0.30450
      49 -> 53         0.44792
      49 -> 54        -0.20564
      49 -> 56        -0.19518
      49 -> 57         0.23414

 Excited State   9:      Singlet-A      8.7096 eV  142.35 nm  f=0.0218  <S**2>=0.000
      48 -> 52         0.16705
      48 -> 53        -0.12592
      48 -> 54         0.50466
      48 -> 55        -0.32448
      48 -> 56        -0.25210
      48 -> 57        -0.11140

 Excited State  10:      Singlet-A      8.7190 eV  142.20 nm  f=0.0060  <S**2>=0.000
      49 -> 52         0.51507
      49 -> 53        -0.31875
      49 -> 54        -0.22720
      49 -> 55        -0.20397
      49 -> 57        -0.12446
      49 -> 58        -0.11941

 The electronic state is 1-A.
 Alpha  occ. eigenvalues --  -14.30866 -14.30758 -10.19933 -10.19910 -10.17536
 Alpha  occ. eigenvalues --  -10.17376 -10.17319 -10.17282 -10.17214 -10.17171
 Alpha  occ. eigenvalues --  -10.17160 -10.16978  -0.87319  -0.87212  -0.80295
 Alpha  occ. eigenvalues --   -0.77973  -0.74584  -0.70902  -0.67254  -0.63964
 Alpha  occ. eigenvalues --   -0.60477  -0.58283  -0.56033  -0.53793  -0.49066
 Alpha  occ. eigenvalues --   -0.48301  -0.46349  -0.46084  -0.44230  -0.43572
 Alpha  occ. eigenvalues --   -0.42296  -0.41981  -0.40481  -0.38859  -0.38675
 Alpha  occ. eigenvalues --   -0.37628  -0.36963  -0.35653  -0.35143  -0.33959
 Alpha  occ. eigenvalues --   -0.33264  -0.32422  -0.31802  -0.31463  -0.30683
 Alpha  occ. eigenvalues --   -0.30181  -0.29304  -0.23413  -0.23345
 Alpha virt. eigenvalues --    0.07349   0.08654   0.09893   0.10890   0.11030
 Alpha virt. eigenvalues --    0.11617   0.13344   0.13477   0.14147   0.15363
 Alpha virt. eigenvalues --    0.15491   0.16508   0.17370   0.17502   0.17739

 Mulliken charges:
               1
     1  N   -0.639834
     2  C   -0.060711
     3  C   -0.179746
     4  C   -0.187987
     5  C   -0.177172
     6  C   -0.157753
     7  C   -0.160170
     8  C   -0.154892
     9  C   -0.150422
    10  C   -0.148419
    11  C   -0.070820
    12  N   -0.100469
    13  H    0.246854
    14  H    0.246823
    15  H    0.098395
    16  H    0.102507
    17  H    0.087601
    18  H    0.087828
    19  H    0.089044
    20  H    0.088816
    21  H    0.084237
    22  H    0.083481
    23  H    0.080391
    24  H    0.075985
    25  H    0.069522
    26  H    0.062552
    27  H    0.037567
    28  H    0.067417
    29  H    0.054795
    30  H    0.072323
    31  H    0.050094
    32  H    0.056007
    33  H    0.079742
    34  H    0.118800
    35  H    0.068673
    36  H    0.078941
 Sum of Mulliken charges =  -0.00000

 Dipole moment (field-independent basis, Debye):
    X=              2.5565    Y=             -0.2497    Z=             -2.3115  Tot=              3.4556
 Quadrupole moment (field-independent basis, Debye-Ang):
   XX=            -66.0672   YY=            -87.9050   ZZ=            -81.6036
   XY=              5.9889   XZ=              2.8139   YZ=             -4.9132

 Summary of Natural Population Analysis:

                                       Natural Population
                Natural  -----------------------------------------------
    Atom  No    Charge         Core      Valence    Rydberg      Total
 -----------------------------------------------------------------------
      N    1   -0.92518      1.99971     5.91025    0.01523     7.92518
      C    2   -0.26096      1.99936     4.24683    0.01477     6.26096
      C    3   -0.48968      1.99933     4.47895    0.01141     6.48968
      C    4   -0.46461      1.99933     4.45367    0.01161     6.46461
      C    5   -0.45761      1.99934     4.44709    0.01119     6.45761
      C    6   -0.46639      1.99933     4.45553    0.01154     6.46639
      C    7   -0.46223      1.99934     4.45121    0.01169     6.46223
      C    8   -0.46569      1.99933     4.45468    0.01168     6.46569
      C    9   -0.46397      1.99933     4.45294    0.01171     6.46397
      C   10   -0.48234      1.99932     4.47012    0.01289     6.48234
      C   11   -0.35585      1.99929     4.33848    0.01808     6.35585
      N   12   -0.36223      1.99935     5.34313    0.01975     7.36223
      H   13    0.38175      0.00000     0.61494    0.00331     0.61825
      H   14    0.38174      0.00000     0.61521    0.00305     0.61826
      H   15    0.22099      0.00000     0.77682    0.00219     0.77901
      H   16    0.22086      0.00000     0.77637    0.00276     0.77914
      H   17    0.22598      0.00000     0.77101    0.00301     0.77402
      H   18    0.23285      0.00000     0.76489    0.00226     0.76715
      H   19    0.24153      0.00000     0.75661    0.00186     0.75847
      H   20    0.22807      0.00000     0.76971    0.00223     0.77193
      H   21    0.22461      0.00000     0.77219    0.00320     0.77539
      H   22    0.23098      0.00000     0.76663    0.00239     0.76902
      H   23    0.21187      0.00000     0.77984    0.00830     0.78813
      H   24    0.22220      0.00000     0.77377    0.00402     0.77780
      H   25    0.22260      0.00000     0.77260    0.00480     0.77740
      H   26    0.20769      0.00000     0.78217    0.01015     0.79231
      H   27    0.19811      0.00000     0.78562    0.01627     0.80189
      H   28    0.22214      0.00000     0.77195    0.00591     0.77786
      H   29    0.21086      0.00000     0.77711    0.01202     0.78914
      H   30    0.22107      0.00000     0.77056    0.00837     0.77893
      H   31    0.20898      0.00000     0.76969    0.02133     0.79102
      H   32    0.20081      0.00000     0.78217    0.01702     0.79919
      H   33    0.20768      0.00000     0.76225    0.03007     0.79232
      H   34    0.25774      0.00000     0.71203    0.03023     0.74226
      H   35    0.22805      0.00000     0.69691    0.07504     0.77195
      H   36    0.24528      0.00000     0.67896    0.07576     0.75472
 =======================================================================
   * Total *   -0.00233     23.99234    73.50292    0.50706    98.00233

 Normal termination of Gaussian 16 at Sun Jul 21 12:53:38 2024.
