 Gaussian 16, Revision A.03,

 -------------------------------------------------------
 # opt=CalcFc B3LYP/6-31G** SCRF=(Solvent=water) scf=xqc
 -------------------------------------------------------

 ----------------------------------
 YQLZOAVZWJBZSY-UHFFFAOYSA-N_conf_2
 ----------------------------------
 Symbolic Z-matrix:
 Charge =  0 Multiplicity = 1

 SCF Done:  E(RB3LYP) =  -505.058508039     A.U. after   11 cycles
 SCF Done:  E(RB3LYP) =  -505.062012341     A.U. after    9 cycles
 SCF Done:  E(RB3LYP) =  -505.062281909     A.U. after    9 cycles
 SCF Done:  E(RB3LYP) =  -505.062320731     A.U. after    9 cycles
 SCF Done:  E(RB3LYP) =  -505.062394983     A.U. after    8 cycles
 SCF Done:  E(RB3LYP) =  -505.062393489     A.U. after    8 cycles
 SCF Done:  E(RB3LYP) =  -505.062397213     A.U. after    7 cycles
 SCF Done:  E(RB3LYP) =  -505.062398215     A.U. after    7 cycles
 SCF Done:  E(RB3LYP) =  -505.062398247     A.U. after    5 cycles
 SCF Done:  E(RB3LYP) =  -505.062398222     A.U. after    5 cycles
 Optimization completed.
    -- Stationary point found.
 Normal termination of Gaussian 16 at Sun Jul 21 12:23:47 2024.

 ----------------------------------------------------------------------
 # freq B3LYP/6-31G** SCRF=(Solvent=water) volume NMR pop=NPA density=c
 urrent Geom=AllCheck Guess=Read
 ----------------------------------------------------------------------

 Structure from the checkpoint file:  "YQLZOAVZWJBZSY-UHFFFAOYSA-N_conf_2_1.chk"
 ----------------------------------
 YQLZOAVZWJBZSY-UHFFFAOYSA-N_conf_2
 ----------------------------------
 Charge =  0 Multiplicity = 1

 SCF Done:  E(RB3LYP) =  -505.062398222     A.U. after    1 cycles

      1  N    Isotropic =   238.2115   Anisotropy =    44.1806

      2  C    Isotropic =   147.3304   Anisotropy =    27.1256

      3  C    Isotropic =   156.8644   Anisotropy =    23.1222

      4  C    Isotropic =   164.0309   Anisotropy =    18.1354

      5  C    Isotropic =   159.1305   Anisotropy =    23.4231

      6  C    Isotropic =   162.0161   Anisotropy =    21.7101

      7  C    Isotropic =   158.3377   Anisotropy =    24.5625

      8  C    Isotropic =   157.8307   Anisotropy =    26.8046

      9  C    Isotropic =   159.5404   Anisotropy =    23.3361

     10  C    Isotropic =   159.1203   Anisotropy =    14.4648

     11  C    Isotropic =   144.3052   Anisotropy =    21.1374

     12  N    Isotropic =   229.2546   Anisotropy =    32.9577

     13  H    Isotropic =    31.9452   Anisotropy =    13.5098

     14  H    Isotropic =    30.8797   Anisotropy =    11.6478

     15  H    Isotropic =    28.9773   Anisotropy =     8.0918

     16  H    Isotropic =    29.3905   Anisotropy =     7.0350

     17  H    Isotropic =    30.0130   Anisotropy =     7.1985

     18  H    Isotropic =    30.7987   Anisotropy =     5.7496

     19  H    Isotropic =    29.9276   Anisotropy =     7.7315

     20  H    Isotropic =    30.7288   Anisotropy =     6.2472

     21  H    Isotropic =    30.5636   Anisotropy =     5.6876

     22  H    Isotropic =    30.2379   Anisotropy =     6.8158

     23  H    Isotropic =    30.8588   Anisotropy =     4.9139

     24  H    Isotropic =    29.8498   Anisotropy =     7.1046

     25  H    Isotropic =    30.6064   Anisotropy =     5.6186

     26  H    Isotropic =    30.3273   Anisotropy =     6.8589

     27  H    Isotropic =    29.2488   Anisotropy =     7.4676

     28  H    Isotropic =    30.4246   Anisotropy =     6.8463

     29  H    Isotropic =    30.0725   Anisotropy =     5.6100

     30  H    Isotropic =    30.4001   Anisotropy =     6.5646

     31  H    Isotropic =    30.4606   Anisotropy =     6.5168

     32  H    Isotropic =    30.1626   Anisotropy =     8.8557

     33  H    Isotropic =    29.1876   Anisotropy =     6.1335

     34  H    Isotropic =    28.5429   Anisotropy =     9.1653

     35  H    Isotropic =    31.7060   Anisotropy =    11.0271

     36  H    Isotropic =    31.0731   Anisotropy =    15.3003

  Exact polarizability: 165.930  -1.928 153.908   1.145   0.913 150.780
 Approx polarizability: 164.000  -1.251 163.841   1.496   0.522 165.323

                      1                      2                      3
                      A                      A                      A
 Frequencies --     25.7071                34.0863                44.2698
 Red. masses --      3.2897                 2.4892                 3.4048
 Frc consts  --      0.0013                 0.0017                 0.0039
 IR Inten    --      0.1114                 0.4585                 0.2112

                      4                      5                      6
                      A                      A                      A
 Frequencies --     52.9077                78.6654               105.5660
 Red. masses --      3.3849                 2.0976                 2.0004
 Frc consts  --      0.0056                 0.0076                 0.0131
 IR Inten    --      1.4738                 4.2841                 0.3954

                      7                      8                      9
                      A                      A                      A
 Frequencies --    119.9921               127.7082               153.3870
 Red. masses --      2.7888                 2.8680                 2.2206
 Frc consts  --      0.0237                 0.0276                 0.0308
 IR Inten    --      0.6811                 2.8237                 3.2510

                     10                     11                     12
                      A                      A                      A
 Frequencies --    203.7981               231.2354               249.4518
 Red. masses --      1.8654                 1.8759                 1.3343
 Frc consts  --      0.0456                 0.0591                 0.0489
 IR Inten    --      2.7295                17.9948                51.7506

                     13                     14                     15
                      A                      A                      A
 Frequencies --    257.4527               273.6305               315.2503
 Red. masses --      2.6986                 1.9878                 1.3640
 Frc consts  --      0.1054                 0.0877                 0.0799
 IR Inten    --      1.5317                21.7774                40.2701

                     16                     17                     18
                      A                      A                      A
 Frequencies --    318.7392               321.6491               432.6083
 Red. masses --      1.7183                 2.4135                 2.4348
 Frc consts  --      0.1029                 0.1471                 0.2685
 IR Inten    --      5.5611                11.9038                 7.9806

                     19                     20                     21
                      A                      A                      A
 Frequencies --    447.1747               512.8690               542.8397
 Red. masses --      2.4354                 2.0284                 2.2414
 Frc consts  --      0.2869                 0.3143                 0.3891
 IR Inten    --      9.7967                 3.6960                 2.8832

                     22                     23                     24
                      A                      A                      A
 Frequencies --    728.3909               754.5491               758.3116
 Red. masses --      1.1637                 1.2664                 1.2629
 Frc consts  --      0.3638                 0.4248                 0.4279
 IR Inten    --      6.8366                 9.7818                 6.3849

                     25                     26                     27
                      A                      A                      A
 Frequencies --    777.5020               814.0916               847.7253
 Red. masses --      1.7564                 1.7893                 1.4233
 Frc consts  --      0.6256                 0.6987                 0.6027
 IR Inten    --      1.0841                16.3624                68.6227

                     28                     29                     30
                      A                      A                      A
 Frequencies --    857.8348               880.8911               897.1758
 Red. masses --      1.4977                 2.0106                 2.0515
 Frc consts  --      0.6493                 0.9192                 0.9729
 IR Inten    --     47.8869                 3.7610               151.1360

                     31                     32                     33
                      A                      A                      A
 Frequencies --    909.1093               936.7138               959.6347
 Red. masses --      1.7006                 1.7197                 1.5378
 Frc consts  --      0.8281                 0.8890                 0.8344
 IR Inten    --     48.7435                18.5395                58.5772

                     34                     35                     36
                      A                      A                      A
 Frequencies --    983.3904               993.8225               999.0376
 Red. masses --      2.0998                 1.6927                 1.6355
 Frc consts  --      1.1964                 0.9850                 0.9618
 IR Inten    --     54.0024                 1.8841                20.5413

                     37                     38                     39
                      A                      A                      A
 Frequencies --   1040.6411              1061.6735              1073.4267
 Red. masses --      2.0026                 2.1887                 1.8368
 Frc consts  --      1.2778                 1.4535                 1.2470
 IR Inten    --     15.0910                27.4206                 5.7505

                     40                     41                     42
                      A                      A                      A
 Frequencies --   1080.5027              1087.4737              1092.2056
 Red. masses --      2.0070                 1.7388                 1.8374
 Frc consts  --      1.3805                 1.2115                 1.2914
 IR Inten    --      2.8224                 4.7347                 2.0302

                     43                     44                     45
                      A                      A                      A
 Frequencies --   1117.6882              1129.9313              1154.8557
 Red. masses --      1.9842                 1.7237                 1.5534
 Frc consts  --      1.4604                 1.2966                 1.2206
 IR Inten    --      6.0484                 5.8691                 6.5552

                     46                     47                     48
                      A                      A                      A
 Frequencies --   1169.3632              1219.9999              1234.9351
 Red. masses --      1.6301                 1.5312                 1.3548
 Frc consts  --      1.3133                 1.3427                 1.2174
 IR Inten    --      0.6649                 1.0941                11.4670

                     49                     50                     51
                      A                      A                      A
 Frequencies --   1254.4584              1287.6179              1296.4405
 Red. masses --      1.3925                 1.2813                 1.3148
 Frc consts  --      1.2911                 1.2516                 1.3020
 IR Inten    --      3.5207                 1.4293                 2.4859

                     52                     53                     54
                      A                      A                      A
 Frequencies --   1307.5074              1325.0433              1328.6591
 Red. masses --      1.2644                 1.2312                 1.1598
 Frc consts  --      1.2735                 1.2736                 1.2063
 IR Inten    --      1.4606                 2.8573                 0.8558

                     55                     56                     57
                      A                      A                      A
 Frequencies --   1336.9302              1341.3308              1348.0383
 Red. masses --      1.1713                 1.1292                 1.2035
 Frc consts  --      1.2335                 1.1970                 1.2885
 IR Inten    --      6.3926                 3.9911                 2.0992

                     58                     59                     60
                      A                      A                      A
 Frequencies --   1351.1149              1385.4942              1392.0262
 Red. masses --      1.1606                 1.4180                 1.3450
 Frc consts  --      1.2483                 1.6038                 1.5356
 IR Inten    --      0.3449                 2.2468                24.3246

                     61                     62                     63
                      A                      A                      A
 Frequencies --   1395.1194              1397.1766              1406.2765
 Red. masses --      1.4204                 1.1708                 1.5327
 Frc consts  --      1.6289                 1.3466                 1.7858
 IR Inten    --     11.8534                 1.1564                 2.5064

                     64                     65                     66
                      A                      A                      A
 Frequencies --   1410.8967              1415.1523              1435.5083
 Red. masses --      1.5285                 1.4643                 1.4314
 Frc consts  --      1.7927                 1.7277                 1.7379
 IR Inten    --      7.9998                 0.7666                16.7019

                     67                     68                     69
                      A                      A                      A
 Frequencies --   1481.7489              1484.9176              1488.0781
 Red. masses --      1.0828                 1.0811                 1.0872
 Frc consts  --      1.4006                 1.4045                 1.4185
 IR Inten    --      0.0941                 1.3818                 1.3125

                     70                     71                     72
                      A                      A                      A
 Frequencies --   1490.1789              1494.4420              1497.6011
 Red. masses --      1.0888                 1.0897                 1.0928
 Frc consts  --      1.4245                 1.4339                 1.4440
 IR Inten    --      3.6850                 1.9469                 0.5488

                     73                     74                     75
                      A                      A                      A
 Frequencies --   1504.9652              1512.3748              1514.4219
 Red. masses --      1.0978                 1.0935                 1.0993
 Frc consts  --      1.4650                 1.4736                 1.4855
 IR Inten    --      2.7112                 4.3279                 3.0268

                     76                     77                     78
                      A                      A                      A
 Frequencies --   1520.8336              1653.5536              1659.8045
 Red. masses --      1.0882                 1.0871                 1.0881
 Frc consts  --      1.4829                 1.7513                 1.7662
 IR Inten    --      2.5027                39.1309                30.2375

                     79                     80                     81
                      A                      A                      A
 Frequencies --   2952.3989              3002.5069              3005.9851
 Red. masses --      1.0726                 1.0614                 1.0607
 Frc consts  --      5.5088                 5.6374                 5.6470
 IR Inten    --    139.2464                10.7311                 2.9959

                     82                     83                     84
                      A                      A                      A
 Frequencies --   3008.6420              3010.1524              3012.8131
 Red. masses --      1.0636                 1.0654                 1.0632
 Frc consts  --      5.6727                 5.6878                 5.6862
 IR Inten    --     44.2605                 8.7122                90.8929

                     85                     86                     87
                      A                      A                      A
 Frequencies --   3013.9954              3015.3049              3018.2305
 Red. masses --      1.0658                 1.0679                 1.0680
 Frc consts  --      5.7042                 5.7205                 5.7325
 IR Inten    --     55.3089                62.9938               134.1504

                     88                     89                     90
                      A                      A                      A
 Frequencies --   3026.2808              3038.6229              3040.5975
 Red. masses --      1.0622                 1.0958                 1.0895
 Frc consts  --      5.7318                 5.9611                 5.9347
 IR Inten    --     56.5904                51.7218                41.2375

                     91                     92                     93
                      A                      A                      A
 Frequencies --   3043.8114              3046.1128              3050.8448
 Red. masses --      1.0983                 1.0955                 1.0962
 Frc consts  --      5.9952                 5.9889                 6.0115
 IR Inten    --     17.7202                 9.6560                96.0726

                     94                     95                     96
                      A                      A                      A
 Frequencies --   3058.9061              3063.6689              3068.8736
 Red. masses --      1.0976                 1.1007                 1.1058
 Frc consts  --      6.0509                 6.0867                 6.1361
 IR Inten    --    105.8695               114.0520               160.6380

                     97                     98                     99
                      A                      A                      A
 Frequencies --   3075.9977              3088.2305              3473.8572
 Red. masses --      1.0990                 1.0965                 1.0506
 Frc consts  --      6.1269                 6.1615                 7.4696
 IR Inten    --    155.4544                79.1840                 1.5031

                    100                    101                    102
                      A                      A                      A
 Frequencies --   3476.3520              3552.6439              3557.5840
 Red. masses --      1.0504                 1.0917                 1.0912
 Frc consts  --      7.4790                 8.1182                 8.1370
 IR Inten    --      1.4532                 0.1528                 0.1178

 - Thermochemistry -
 -------------------
 Temperature   298.150 Kelvin.  Pressure   1.00000 Atm.
 Atom     1 has atomic number  7 and mass  14.00307

 Molecular mass:   172.19395 amu.
 Principal axes and moments of inertia in atomic units:
                           1         2         3
     Eigenvalues --  1137.093237597.651938088.13979
           X            0.99999  -0.00316  -0.00080
           Y            0.00317   0.99998   0.00590
           Z            0.00078  -0.00591   0.99998
 This molecule is an asymmetric top.
 Rotational symmetry number  1.
 Warning -- assumption of classical behavior for rotation
           may cause significant error
 Rotational temperatures (Kelvin)      0.07617     0.01140     0.01071
 Rotational constants (GHZ):           1.58715     0.23754     0.22313
 Zero-point vibrational energy     890201.0 (Joules/Mol)
                                  212.76315 (Kcal/Mol)
 Warning -- explicit consideration of  21 degrees of freedom as
           vibrations may cause significant error
 Vibrational temperatures:     36.99    49.04    63.69    76.12   113.18
          (Kelvin)            151.89   172.64   183.74   220.69   293.22
                              332.70   358.91   370.42   393.69   453.57
                              458.59   462.78   622.43   643.38   737.90
                              781.03  1047.99  1085.63  1091.04  1118.65
                             1171.30  1219.69  1234.23  1267.41  1290.84
                             1308.01  1347.72  1380.70  1414.88  1429.89
                             1437.39  1497.25  1527.51  1544.42  1554.60
                             1564.63  1571.44  1608.10  1625.72  1661.58
                             1682.45  1755.31  1776.80  1804.89  1852.60
                             1865.29  1881.21  1906.44  1911.64  1923.54
                             1929.88  1939.53  1943.95  1993.42  2002.82
                             2007.27  2010.23  2023.32  2029.97  2036.09
                             2065.38  2131.91  2136.47  2141.01  2144.04
                             2150.17  2154.71  2165.31  2175.97  2178.92
                             2188.14  2379.09  2388.09  4247.84  4319.94
                             4324.94  4328.76  4330.94  4334.77  4336.47
                             4338.35  4342.56  4354.14  4371.90  4374.74
                             4379.37  4382.68  4389.49  4401.08  4407.94
                             4415.42  4425.67  4443.27  4998.11  5001.70
                             5111.46  5118.57

 Zero-point correction=                           0.339060 (Hartree/Particle)
 Thermal correction to Energy=                    0.354916
 Thermal correction to Enthalpy=                  0.355860
 Thermal correction to Gibbs Free Energy=         0.293684
 Sum of electronic and zero-point Energies=           -504.723339
 Sum of electronic and thermal Energies=              -504.707482
 Sum of electronic and thermal Enthalpies=            -504.706538
 Sum of electronic and thermal Free Energies=         -504.768714

                     E (Thermal)             CV                S
                      KCal/Mol        Cal/Mol-Kelvin    Cal/Mol-Kelvin
 Total                  222.713             56.965            130.861
 Electronic               0.000              0.000              0.000
 Translational            0.889              2.981             41.338
 Rotational               0.889              2.981             32.613
 Vibrational            220.936             51.003             56.910
 Vibration     1          0.593              1.985              6.136
 Vibration     2          0.594              1.983              5.576
 Vibration     3          0.595              1.980              5.058
 Vibration     4          0.596              1.976              4.706
 Vibration     5          0.600              1.964              3.924
 Vibration     6          0.605              1.945              3.349
 Vibration     7          0.609              1.933              3.100
 Vibration     8          0.611              1.925              2.980
 Vibration     9          0.619              1.899              2.630
 Vibration    10          0.639              1.834              2.099
 Vibration    11          0.653              1.793              1.869
 Vibration    12          0.662              1.764              1.734
 Vibration    13          0.667              1.750              1.679
 Vibration    14          0.676              1.722              1.573
 Vibration    15          0.703              1.645              1.335
 Vibration    16          0.705              1.638              1.317
 Vibration    17          0.707              1.632              1.302
 Vibration    18          0.793              1.399              0.850
 Vibration    19          0.806              1.367              0.804
 Vibration    20          0.868              1.221              0.627
 Vibration    21          0.898              1.155              0.559

 Optimization completed.
    -- Stationary point found.
 Normal termination of Gaussian 16 at Sun Jul 21 12:38:20 2024.
 Gaussian 16:  ES64L-G16RevA.03 25-Dec-2016

 ----------------------------------------------------------------------
 # TD(NStates=10, Root=1) B3LYP/6-31G** SCRF=(Solvent=water) volume pop
 =NPA density=current Geom=AllCheck Guess=Read
 ----------------------------------------------------------------------

 Structure from the checkpoint file:  "YQLZOAVZWJBZSY-UHFFFAOYSA-N_conf_2_2.chk"
 ----------------------------------
 YQLZOAVZWJBZSY-UHFFFAOYSA-N_conf_2
 ----------------------------------
 Charge =  0 Multiplicity = 1

                         Standard orientation:
 ---------------------------------------------------------------------
 Center     Atomic      Atomic             Coordinates (Angstroms)
 Number     Number       Type             X           Y           Z
 ---------------------------------------------------------------------
      1          7           0       -5.677080   -0.816040   -0.085745
      2          6           0       -4.360612   -1.471908   -0.074898
      3          6           0       -3.142616   -0.593144   -0.412853
      4          6           0       -2.886174    0.535215    0.595151
      5          6           0       -1.716590    1.466561    0.235751
      6          6           0       -0.330711    0.806809    0.266514
      7          6           0        0.807956    1.795163   -0.024929
      8          6           0        2.221805    1.198082    0.066422
      9          6           0        2.546615    0.164218   -1.023209
     10          6           0        3.992692   -0.367121   -1.012259
     11          6           0        4.305442   -1.480451   -0.004580
     12          7           0        4.183060   -1.042037    1.395510
     13          1           0       -5.810097   -0.355422   -0.985470
     14          1           0       -5.688602   -0.066357    0.603101
     15          1           0       -4.401500   -2.307091   -0.785037
     16          1           0       -4.220730   -1.918829    0.918293
     17          1           0       -2.260908   -1.243683   -0.478927
     18          1           0       -3.282838   -0.161956   -1.415372
     19          1           0       -3.795039    1.144383    0.686977
     20          1           0       -2.710067    0.098209    1.589016
     21          1           0       -1.891504    1.896208   -0.761296
     22          1           0       -1.716320    2.314929    0.933880
     23          1           0       -0.169485    0.353284    1.255643
     24          1           0       -0.297964   -0.017586   -0.455743
     25          1           0        0.660201    2.231389   -1.024086
     26          1           0        0.732891    2.632361    0.682953
     27          1           0        2.374328    0.742110    1.050616
     28          1           0        2.951779    2.016675   -0.008441
     29          1           0        1.858146   -0.688585   -0.953999
     30          1           0        2.354985    0.626254   -2.002128
     31          1           0        4.691526    0.468375   -0.856511
     32          1           0        4.227245   -0.768656   -2.006497
     33          1           0        3.598216   -2.306615   -0.156630
     34          1           0        5.305767   -1.882280   -0.242116
     35          1           0        4.869851   -0.309524    1.570125
     36          1           0        4.451425   -1.811592    2.006638
 ---------------------------------------------------------------------

 SCF Done:  E(RB3LYP) =  -505.062398222     A.U. after    1 cycles

 Excitation energies and oscillator strengths:

 Excited State   1:      Singlet-A      7.3228 eV  169.31 nm  f=0.0153  <S**2>=0.000
      49 -> 50         0.29388
      49 -> 51         0.62017
 This state for optimization and/or second-order correction.
 Total Energy, E(TD-HF/TD-DFT) =  -504.793292052
 Copying the excited state density for this state as the 1-particle RhoCI density.

 Excited State   2:      Singlet-A      7.4121 eV  167.27 nm  f=0.0287  <S**2>=0.000
      48 -> 50         0.61795
      48 -> 51        -0.29168
      48 -> 52        -0.13896

 Excited State   3:      Singlet-A      8.2131 eV  150.96 nm  f=0.0022  <S**2>=0.000
      49 -> 50         0.61703
      49 -> 51        -0.24442
      49 -> 52         0.21567

 Excited State   4:      Singlet-A      8.3953 eV  147.68 nm  f=0.0156  <S**2>=0.000
      49 -> 50        -0.15693
      49 -> 51         0.20574
      49 -> 52         0.45644
      49 -> 53         0.35376
      49 -> 54         0.13664
      49 -> 55         0.12779
      49 -> 56         0.19297

 Excited State   5:      Singlet-A      8.4064 eV  147.49 nm  f=0.0030  <S**2>=0.000
      48 -> 50         0.32211
      48 -> 51         0.59487
      48 -> 52         0.16092

 Excited State   6:      Singlet-A      8.4454 eV  146.81 nm  f=0.0064  <S**2>=0.000
      49 -> 52        -0.42477
      49 -> 53         0.43255
      49 -> 55         0.29681
      49 -> 58         0.12303

 Excited State   7:      Singlet-A      8.4958 eV  145.94 nm  f=0.0653  <S**2>=0.000
      48 -> 53         0.56394
      48 -> 55        -0.23562
      48 -> 56        -0.27638
      48 -> 58         0.12707

 Excited State   8:      Singlet-A      8.5365 eV  145.24 nm  f=0.0601  <S**2>=0.000
      48 -> 51        -0.21344
      48 -> 52         0.61537
      48 -> 54        -0.20800

 Excited State   9:      Singlet-A      8.6546 eV  143.26 nm  f=0.0360  <S**2>=0.000
      49 -> 52        -0.16769
      49 -> 54         0.53229
      49 -> 56         0.17809
      49 -> 57         0.35400

 Excited State  10:      Singlet-A      8.7439 eV  141.80 nm  f=0.0367  <S**2>=0.000
      48 -> 52         0.16674
      48 -> 53        -0.14656
      48 -> 54         0.43035
      48 -> 55         0.20504
      48 -> 56        -0.36654
      48 -> 57        -0.17214
      48 -> 59         0.20558
      48 -> 60         0.10588

 The electronic state is 1-A.
 Alpha  occ. eigenvalues --  -14.30912 -14.30798 -10.20071 -10.20056 -10.17474
 Alpha  occ. eigenvalues --  -10.17438 -10.17353 -10.17236 -10.17110 -10.17102
 Alpha  occ. eigenvalues --  -10.17068 -10.16591  -0.87357  -0.87232  -0.80152
 Alpha  occ. eigenvalues --   -0.77901  -0.74788  -0.71191  -0.67298  -0.63524
 Alpha  occ. eigenvalues --   -0.59970  -0.57839  -0.56088  -0.55287  -0.48350
 Alpha  occ. eigenvalues --   -0.47563  -0.46490  -0.45602  -0.44806  -0.44034
 Alpha  occ. eigenvalues --   -0.42556  -0.41330  -0.40530  -0.39681  -0.38958
 Alpha  occ. eigenvalues --   -0.37209  -0.36959  -0.35611  -0.34754  -0.34153
 Alpha  occ. eigenvalues --   -0.32940  -0.32310  -0.31752  -0.31276  -0.30777
 Alpha  occ. eigenvalues --   -0.29989  -0.29739  -0.23501  -0.23118
 Alpha virt. eigenvalues --    0.08392   0.08561   0.10114   0.10839   0.11684
 Alpha virt. eigenvalues --    0.12376   0.12617   0.13142   0.14476   0.14615
 Alpha virt. eigenvalues --    0.15935   0.16574   0.17325   0.17540   0.17790

 Mulliken charges:
               1
     1  N   -0.635843
     2  C   -0.065833
     3  C   -0.177874
     4  C   -0.177717
     5  C   -0.180364
     6  C   -0.171105
     7  C   -0.183100
     8  C   -0.167546
     9  C   -0.160689
    10  C   -0.153739
    11  C   -0.067293
    12  N   -0.061273
    13  H    0.248319
    14  H    0.251575
    15  H    0.098349
    16  H    0.100339
    17  H    0.093626
    18  H    0.088882
    19  H    0.082552
    20  H    0.089594
    21  H    0.088992
    22  H    0.087335
    23  H    0.087870
    24  H    0.098839
    25  H    0.091003
    26  H    0.087414
    27  H    0.077991
    28  H    0.077968
    29  H    0.091080
    30  H    0.076716
    31  H    0.060888
    32  H    0.048941
    33  H    0.095600
    34  H    0.088213
    35  H    0.005947
    36  H   -0.015658
 Sum of Mulliken charges =  -0.00000

 Dipole moment (field-independent basis, Debye):
    X=              0.7607    Y=              0.7501    Z=             -0.6517  Tot=              1.2514
 Quadrupole moment (field-independent basis, Debye-Ang):
   XX=            -98.3950   YY=            -82.8808   ZZ=            -81.3651
   XY=            -10.8786   XZ=             -0.0065   YZ=              1.5377

 Summary of Natural Population Analysis:

                                       Natural Population
                Natural  -----------------------------------------------
    Atom  No    Charge         Core      Valence    Rydberg      Total
 -----------------------------------------------------------------------
      N    1   -0.92653      1.99971     5.91172    0.01510     7.92653
      C    2   -0.26574      1.99936     4.25040    0.01598     6.26574
      C    3   -0.48427      1.99932     4.47501    0.00994     6.48427
      C    4   -0.46455      1.99933     4.45390    0.01131     6.46455
      C    5   -0.45603      1.99934     4.44562    0.01107     6.45603
      C    6   -0.46328      1.99933     4.45320    0.01074     6.46328
      C    7   -0.45853      1.99933     4.44754    0.01166     6.45853
      C    8   -0.46073      1.99932     4.44890    0.01251     6.46073
      C    9   -0.46420      1.99932     4.45300    0.01188     6.46420
      C   10   -0.47657      1.99932     4.46433    0.01292     6.47657
      C   11   -0.35380      1.99930     4.33631    0.01819     6.35380
      N   12   -0.39337      1.99934     5.37141    0.02262     7.39337
      H   13    0.38279      0.00000     0.61424    0.00297     0.61721
      H   14    0.38400      0.00000     0.61335    0.00265     0.61600
      H   15    0.22866      0.00000     0.76942    0.00192     0.77134
      H   16    0.22320      0.00000     0.77465    0.00216     0.77680
      H   17    0.23475      0.00000     0.76308    0.00217     0.76525
      H   18    0.22667      0.00000     0.77085    0.00247     0.77333
      H   19    0.22986      0.00000     0.76729    0.00286     0.77014
      H   20    0.22857      0.00000     0.76912    0.00231     0.77143
      H   21    0.22839      0.00000     0.76932    0.00229     0.77161
      H   22    0.23382      0.00000     0.76409    0.00208     0.76618
      H   23    0.22704      0.00000     0.77049    0.00247     0.77296
      H   24    0.22831      0.00000     0.76977    0.00192     0.77169
      H   25    0.23019      0.00000     0.76749    0.00232     0.76981
      H   26    0.23403      0.00000     0.76367    0.00231     0.76597
      H   27    0.21841      0.00000     0.77529    0.00630     0.78159
      H   28    0.22865      0.00000     0.76485    0.00650     0.77135
      H   29    0.22852      0.00000     0.76695    0.00453     0.77148
      H   30    0.22377      0.00000     0.76828    0.00795     0.77623
      H   31    0.21221      0.00000     0.76790    0.01989     0.78779
      H   32    0.20059      0.00000     0.78364    0.01577     0.79941
      H   33    0.22569      0.00000     0.75244    0.02188     0.77431
      H   34    0.23597      0.00000     0.72529    0.03875     0.76403
      H   35    0.19836      0.00000     0.71730    0.08435     0.80164
      H   36    0.17500      0.00000     0.73927    0.08573     0.82500
 =======================================================================
   * Total *   -0.00015     23.99233    73.51938    0.48844    98.00015

 Normal termination of Gaussian 16 at Sun Jul 21 12:55:46 2024.
