 Gaussian 16, Revision A.03,

 -------------------------------------------------------
 # opt=CalcFc B3LYP/6-31G** SCRF=(Solvent=water) scf=xqc
 -------------------------------------------------------

 ----------------------------------
 YQLZOAVZWJBZSY-UHFFFAOYSA-N_conf_1
 ----------------------------------
 Symbolic Z-matrix:
 Charge =  0 Multiplicity = 1

 SCF Done:  E(RB3LYP) =  -505.048665829     A.U. after   11 cycles
 SCF Done:  E(RB3LYP) =  -505.052654416     A.U. after    9 cycles
 SCF Done:  E(RB3LYP) =  -505.052795090     A.U. after    8 cycles
 SCF Done:  E(RB3LYP) =  -505.052798196     A.U. after    8 cycles
 SCF Done:  E(RB3LYP) =  -505.052800965     A.U. after    8 cycles
 SCF Done:  E(RB3LYP) =  -505.052801885     A.U. after    7 cycles
 SCF Done:  E(RB3LYP) =  -505.052801986     A.U. after    7 cycles
 SCF Done:  E(RB3LYP) =  -505.052801967     A.U. after    6 cycles
 Optimization completed on the basis of negligible forces.
    -- Stationary point found.
 Normal termination of Gaussian 16 at Sun Jul 21 12:22:18 2024.

 ----------------------------------------------------------------------
 # freq B3LYP/6-31G** SCRF=(Solvent=water) volume NMR pop=NPA density=c
 urrent Geom=AllCheck Guess=Read
 ----------------------------------------------------------------------

 Structure from the checkpoint file:  "YQLZOAVZWJBZSY-UHFFFAOYSA-N_conf_1_1.chk"
 ----------------------------------
 YQLZOAVZWJBZSY-UHFFFAOYSA-N_conf_1
 ----------------------------------
 Charge =  0 Multiplicity = 1

 SCF Done:  E(RB3LYP) =  -505.052801967     A.U. after    1 cycles

      1  N    Isotropic =   231.5475   Anisotropy =    34.8923

      2  C    Isotropic =   146.6234   Anisotropy =    39.2765

      3  C    Isotropic =   154.7893   Anisotropy =    28.2055

      4  C    Isotropic =   168.7074   Anisotropy =    16.3076

      5  C    Isotropic =   163.8982   Anisotropy =    18.3933

      6  C    Isotropic =   159.1236   Anisotropy =    12.2984

      7  C    Isotropic =   166.1681   Anisotropy =    25.2398

      8  C    Isotropic =   157.4257   Anisotropy =    33.5374

      9  C    Isotropic =   157.9234   Anisotropy =    31.8259

     10  C    Isotropic =   157.4312   Anisotropy =    14.2367

     11  C    Isotropic =   144.3758   Anisotropy =    23.8682

     12  N    Isotropic =   231.2881   Anisotropy =    25.0190

     13  H    Isotropic =    31.6636   Anisotropy =    12.4752

     14  H    Isotropic =    31.0020   Anisotropy =    15.2324

     15  H    Isotropic =    28.9348   Anisotropy =     6.5675

     16  H    Isotropic =    28.9624   Anisotropy =     6.8962

     17  H    Isotropic =    30.2664   Anisotropy =     6.0419

     18  H    Isotropic =    30.3630   Anisotropy =     7.3570

     19  H    Isotropic =    30.3449   Anisotropy =     8.4231

     20  H    Isotropic =    30.2092   Anisotropy =     5.9166

     21  H    Isotropic =    29.9012   Anisotropy =     6.6583

     22  H    Isotropic =    30.4193   Anisotropy =     7.0959

     23  H    Isotropic =    30.3750   Anisotropy =     8.3457

     24  H    Isotropic =    30.3269   Anisotropy =     8.6407

     25  H    Isotropic =    30.3420   Anisotropy =     4.2630

     26  H    Isotropic =    30.2746   Anisotropy =     8.9572

     27  H    Isotropic =    30.5944   Anisotropy =     4.0424

     28  H    Isotropic =    29.8563   Anisotropy =     8.8033

     29  H    Isotropic =    29.9477   Anisotropy =     9.1060

     30  H    Isotropic =    30.4996   Anisotropy =     3.8442

     31  H    Isotropic =    30.6088   Anisotropy =     5.7040

     32  H    Isotropic =    30.2802   Anisotropy =     7.9907

     33  H    Isotropic =    29.0097   Anisotropy =     8.8519

     34  H    Isotropic =    29.2479   Anisotropy =     7.0704

     35  H    Isotropic =    31.7827   Anisotropy =    11.5333

     36  H    Isotropic =    31.0157   Anisotropy =    10.5464

  Exact polarizability: 167.564   1.325 154.101  -4.029   1.092 144.728
 Approx polarizability: 165.743  -0.135 164.570  -3.155   1.621 160.984

                      1                      2                      3
                      A                      A                      A
 Frequencies --     12.3857                23.9658                36.9828
 Red. masses --      4.1159                 3.1614                 3.6293
 Frc consts  --      0.0004                 0.0011                 0.0029
 IR Inten    --      0.7901                 0.9437                 0.4584

                      4                      5                      6
                      A                      A                      A
 Frequencies --     69.7766                87.3837                92.3051
 Red. masses --      2.7620                 1.8142                 2.5636
 Frc consts  --      0.0079                 0.0082                 0.0129
 IR Inten    --      1.2563                 0.6562                 0.8357

                      7                      8                      9
                      A                      A                      A
 Frequencies --    109.2076               130.5989               162.5828
 Red. masses --      2.3937                 2.5385                 2.7457
 Frc consts  --      0.0168                 0.0255                 0.0428
 IR Inten    --      8.5402                 0.8325                 0.4911

                     10                     11                     12
                      A                      A                      A
 Frequencies --    212.1192               240.4183               263.5385
 Red. masses --      2.4890                 2.4483                 1.8451
 Frc consts  --      0.0660                 0.0834                 0.0755
 IR Inten    --      1.0084                 1.6804                 4.9644

                     13                     14                     15
                      A                      A                      A
 Frequencies --    270.6130               296.8315               337.2579
 Red. masses --      1.1812                 1.7312                 1.2570
 Frc consts  --      0.0510                 0.0899                 0.0842
 IR Inten    --     57.6788                16.3619                50.4822

                     16                     17                     18
                      A                      A                      A
 Frequencies --    346.0598               358.4389               392.9615
 Red. masses --      2.1846                 2.3868                 1.9984
 Frc consts  --      0.1541                 0.1807                 0.1818
 IR Inten    --      6.1549                11.0551                 1.4991

                     19                     20                     21
                      A                      A                      A
 Frequencies --    472.2824               496.9353               497.4955
 Red. masses --      1.9303                 2.1595                 1.8596
 Frc consts  --      0.2537                 0.3142                 0.2712
 IR Inten    --      3.8184                 5.0351                 3.5576

                     22                     23                     24
                      A                      A                      A
 Frequencies --    721.3825               739.1776               776.5001
 Red. masses --      1.4190                 1.6920                 1.8004
 Frc consts  --      0.4351                 0.5447                 0.6396
 IR Inten    --      4.7411                 3.3563                 7.7763

                     25                     26                     27
                      A                      A                      A
 Frequencies --    779.7001               796.5628               835.8467
 Red. masses --      1.2477                 2.0479                 1.6314
 Frc consts  --      0.4469                 0.7656                 0.6715
 IR Inten    --     11.0723                 4.2957                48.5658

                     28                     29                     30
                      A                      A                      A
 Frequencies --    853.8670               872.5130               897.3208
 Red. masses --      1.6751                 1.7647                 1.4517
 Frc consts  --      0.7196                 0.7915                 0.6887
 IR Inten    --     10.6568                 2.1332               305.4799

                     31                     32                     33
                      A                      A                      A
 Frequencies --    916.0451               935.5031               957.9844
 Red. masses --      1.4931                 2.0083                 1.7281
 Frc consts  --      0.7382                 1.0355                 0.9344
 IR Inten    --     11.0091                75.5761                 9.8817

                     34                     35                     36
                      A                      A                      A
 Frequencies --    972.6187               993.3145              1013.5159
 Red. masses --      2.1846                 2.0041                 1.6233
 Frc consts  --      1.2176                 1.1651                 0.9825
 IR Inten    --     50.9933                 9.6841                 8.9775

                     37                     38                     39
                      A                      A                      A
 Frequencies --   1037.2761              1053.4513              1078.1827
 Red. masses --      1.7017                 2.5007                 1.8625
 Frc consts  --      1.0788                 1.6351                 1.2757
 IR Inten    --      3.8256                 4.3849                29.9089

                     40                     41                     42
                      A                      A                      A
 Frequencies --   1078.9290              1089.3455              1106.1159
 Red. masses --      1.7184                 2.2656                 2.0172
 Frc consts  --      1.1786                 1.5841                 1.4541
 IR Inten    --      7.7102                12.7894                 6.4395

                     43                     44                     45
                      A                      A                      A
 Frequencies --   1112.9160              1124.0245              1151.4250
 Red. masses --      2.0036                 1.4967                 1.5004
 Frc consts  --      1.4621                 1.1141                 1.1720
 IR Inten    --      2.4354                 5.3463                 0.4832

                     46                     47                     48
                      A                      A                      A
 Frequencies --   1173.1152              1219.8357              1230.6626
 Red. masses --      1.4855                 1.4134                 1.2946
 Frc consts  --      1.2045                 1.2391                 1.1552
 IR Inten    --      3.9437                 3.7578                 2.4752

                     49                     50                     51
                      A                      A                      A
 Frequencies --   1245.6752              1258.1955              1279.0451
 Red. masses --      1.2703                 1.2467                 1.2527
 Frc consts  --      1.1614                 1.1628                 1.2074
 IR Inten    --      3.1496                 3.4634                 5.4822

                     52                     53                     54
                      A                      A                      A
 Frequencies --   1314.7335              1322.7677              1332.5993
 Red. masses --      1.2306                 1.1678                 1.1350
 Frc consts  --      1.2533                 1.2039                 1.1875
 IR Inten    --      3.6589                 1.2410                 0.2423

                     55                     56                     57
                      A                      A                      A
 Frequencies --   1337.4333              1345.3960              1369.9598
 Red. masses --      1.1997                 1.1548                 1.3006
 Frc consts  --      1.2643                 1.2315                 1.4381
 IR Inten    --      4.2770                 0.4915                20.6055

                     58                     59                     60
                      A                      A                      A
 Frequencies --   1375.6082              1376.6774              1383.1984
 Red. masses --      1.3833                 1.3992                 1.4372
 Frc consts  --      1.5423                 1.5624                 1.6201
 IR Inten    --      0.6988                 0.7204                 0.6832

                     61                     62                     63
                      A                      A                      A
 Frequencies --   1396.6360              1401.4721              1402.1537
 Red. masses --      1.3625                 1.3950                 1.2085
 Frc consts  --      1.5659                 1.6144                 1.3998
 IR Inten    --      5.8208                 2.4683                 2.8056

                     64                     65                     66
                      A                      A                      A
 Frequencies --   1402.7178              1407.4390              1438.0871
 Red. masses --      1.3756                 1.3702                 1.4740
 Frc consts  --      1.5947                 1.5991                 1.7961
 IR Inten    --     12.9799                 7.1280                 6.3324

                     67                     68                     69
                      A                      A                      A
 Frequencies --   1487.0920              1487.4112              1490.1464
 Red. masses --      1.0859                 1.0833                 1.0860
 Frc consts  --      1.4149                 1.4121                 1.4208
 IR Inten    --      2.1363                 3.4785                 2.9196

                     70                     71                     72
                      A                      A                      A
 Frequencies --   1490.9794              1496.6244              1497.9022
 Red. masses --      1.0884                 1.0923                 1.0925
 Frc consts  --      1.4256                 1.4416                 1.4443
 IR Inten    --      0.8354                 1.0645                 3.2925

                     73                     74                     75
                      A                      A                      A
 Frequencies --   1504.0340              1506.2301              1511.9654
 Red. masses --      1.0843                 1.0892                 1.0928
 Frc consts  --      1.4451                 1.4559                 1.4719
 IR Inten    --      9.0304                 0.6657                 6.6583

                     76                     77                     78
                      A                      A                      A
 Frequencies --   1526.0618              1656.2864              1661.2269
 Red. masses --      1.0884                 1.0874                 1.0889
 Frc consts  --      1.4934                 1.7576                 1.7705
 IR Inten    --      0.4250                35.5970                35.2483

                     79                     80                     81
                      A                      A                      A
 Frequencies --   2951.1243              3010.9408              3011.2361
 Red. masses --      1.0729                 1.0617                 1.0627
 Frc consts  --      5.5054                 5.6708                 5.6776
 IR Inten    --    122.5104                28.0335                48.3148

                     82                     83                     84
                      A                      A                      A
 Frequencies --   3011.9051              3015.8536              3021.3651
 Red. masses --      1.0690                 1.0664                 1.0672
 Frc consts  --      5.7134                 5.7149                 5.7399
 IR Inten    --     15.1100                23.6787                54.4170

                     85                     86                     87
                      A                      A                      A
 Frequencies --   3024.0700              3024.6338              3027.4369
 Red. masses --      1.0628                 1.0616                 1.0624
 Frc consts  --      5.7264                 5.7223                 5.7370
 IR Inten    --     70.4150                86.0250                61.8058

                     88                     89                     90
                      A                      A                      A
 Frequencies --   3032.8399              3048.2108              3049.5918
 Red. masses --      1.0671                 1.0971                 1.0997
 Frc consts  --      5.7829                 6.0060                 6.0256
 IR Inten    --      2.2018                 1.2717                85.5193

                     91                     92                     93
                      A                      A                      A
 Frequencies --   3056.5364              3061.4019              3063.8951
 Red. masses --      1.0966                 1.1003                 1.0982
 Frc consts  --      6.0360                 6.0757                 6.0743
 IR Inten    --     43.3544               132.1965                80.2982

                     94                     95                     96
                      A                      A                      A
 Frequencies --   3065.0862              3066.4672              3072.0505
 Red. masses --      1.1051                 1.0901                 1.0981
 Frc consts  --      6.1168                 6.0393                 6.1061
 IR Inten    --    107.3877                16.2191               175.4853

                     97                     98                     99
                      A                      A                      A
 Frequencies --   3076.4177              3084.9736              3475.0072
 Red. masses --      1.0952                 1.0958                 1.0510
 Frc consts  --      6.1072                 6.1443                 7.4773
 IR Inten    --    108.7490               126.0033                 2.2368

                    100                    101                    102
                      A                      A                      A
 Frequencies --   3481.9269              3553.2342              3565.8348
 Red. masses --      1.0504                 1.0913                 1.0913
 Frc consts  --      7.5035                 8.1175                 8.1754
 IR Inten    --      1.4767                 0.1834                 0.0171

 - Thermochemistry -
 -------------------
 Temperature   298.150 Kelvin.  Pressure   1.00000 Atm.
 Atom     1 has atomic number  7 and mass  14.00307

 Molecular mass:   172.19395 amu.
 Principal axes and moments of inertia in atomic units:
                           1         2         3
     Eigenvalues --   836.963707027.879727294.35192
           X            0.99999   0.00211  -0.00359
           Y           -0.00210   1.00000   0.00164
           Z            0.00360  -0.00164   0.99999
 This molecule is an asymmetric top.
 Rotational symmetry number  1.
 Warning -- assumption of classical behavior for rotation
           may cause significant error
 Rotational temperatures (Kelvin)      0.10349     0.01232     0.01187
 Rotational constants (GHZ):           2.15630     0.25680     0.24742
 Zero-point vibrational energy     891128.6 (Joules/Mol)
                                  212.98485 (Kcal/Mol)
 Warning -- explicit consideration of  21 degrees of freedom as
           vibrations may cause significant error
 Vibrational temperatures:     17.82    34.48    53.21   100.39   125.73
          (Kelvin)            132.81   157.13   187.90   233.92   305.19
                              345.91   379.17   389.35   427.07   485.24
                              497.90   515.71   565.38   679.51   714.98
                              715.79  1037.91  1063.51  1117.21  1121.81
                             1146.08  1202.60  1228.52  1255.35  1291.04
                             1317.98  1345.98  1378.33  1399.38  1429.16
                             1458.22  1492.41  1515.68  1551.26  1552.34
                             1567.33  1591.45  1601.24  1617.22  1656.64
                             1687.85  1755.07  1770.65  1792.25  1810.26
                             1840.26  1891.61  1903.17  1917.31  1924.27
                             1935.72  1971.07  1979.19  1980.73  1990.11
                             2009.45  2016.41  2017.39  2018.20  2024.99
                             2069.09  2139.59  2140.05  2143.99  2145.19
                             2153.31  2155.15  2163.97  2167.13  2175.38
                             2195.66  2383.03  2390.13  4246.01  4332.07
                             4332.50  4333.46  4339.14  4347.07  4350.96
                             4351.77  4355.81  4363.58  4385.70  4387.68
                             4397.67  4404.67  4408.26  4409.98  4411.96
                             4420.00  4426.28  4438.59  4999.76  5009.72
                             5112.31  5130.44

 Zero-point correction=                           0.339413 (Hartree/Particle)
 Thermal correction to Energy=                    0.355189
 Thermal correction to Enthalpy=                  0.356133
 Thermal correction to Gibbs Free Energy=         0.293517
 Sum of electronic and zero-point Energies=           -504.713389
 Sum of electronic and thermal Energies=              -504.697613
 Sum of electronic and thermal Enthalpies=            -504.696669
 Sum of electronic and thermal Free Energies=         -504.759285

                     E (Thermal)             CV                S
                      KCal/Mol        Cal/Mol-Kelvin    Cal/Mol-Kelvin
 Total                  222.884             56.921            131.787
 Electronic               0.000              0.000              0.000
 Translational            0.889              2.981             41.338
 Rotational               0.889              2.981             32.129
 Vibrational            221.107             50.959             58.320
 Vibration     1          0.593              1.987              7.586
 Vibration     2          0.593              1.985              6.275
 Vibration     3          0.594              1.982              5.414
 Vibration     4          0.598              1.969              4.160
 Vibration     5          0.601              1.958              3.718
 Vibration     6          0.602              1.955              3.611
 Vibration     7          0.606              1.942              3.283
 Vibration     8          0.612              1.923              2.937
 Vibration     9          0.623              1.888              2.520
 Vibration    10          0.643              1.822              2.025
 Vibration    11          0.657              1.779              1.800
 Vibration    12          0.670              1.740              1.638
 Vibration    13          0.674              1.727              1.592
 Vibration    14          0.690              1.680              1.435
 Vibration    15          0.718              1.601              1.225
 Vibration    16          0.724              1.583              1.184
 Vibration    17          0.733              1.558              1.129
 Vibration    18          0.760              1.485              0.989
 Vibration    19          0.829              1.312              0.731
 Vibration    20          0.852              1.257              0.666
 Vibration    21          0.853              1.256              0.664

 Optimization completed on the basis of negligible forces.
    -- Stationary point found.
 Normal termination of Gaussian 16 at Sun Jul 21 12:37:54 2024.
 Gaussian 16:  ES64L-G16RevA.03 25-Dec-2016

 ----------------------------------------------------------------------
 # TD(NStates=10, Root=1) B3LYP/6-31G** SCRF=(Solvent=water) volume pop
 =NPA density=current Geom=AllCheck Guess=Read
 ----------------------------------------------------------------------

 Structure from the checkpoint file:  "YQLZOAVZWJBZSY-UHFFFAOYSA-N_conf_1_2.chk"
 ----------------------------------
 YQLZOAVZWJBZSY-UHFFFAOYSA-N_conf_1
 ----------------------------------
 Charge =  0 Multiplicity = 1

                         Standard orientation:
 ---------------------------------------------------------------------
 Center     Atomic      Atomic             Coordinates (Angstroms)
 Number     Number       Type             X           Y           Z
 ---------------------------------------------------------------------
      1          7           0        5.433751    0.082775   -0.688815
      2          6           0        3.983278    0.241328   -0.492119
      3          6           0        3.363731   -1.076212   -0.018668
      4          6           0        1.833321   -1.078550    0.140340
      5          6           0        1.271581   -0.150150    1.241368
      6          6           0        0.887311    1.276695    0.805043
      7          6           0       -0.286887    1.410754   -0.184661
      8          6           0       -1.658316    0.908368    0.323120
      9          6           0       -2.010588   -0.534351   -0.082977
     10          6           0       -3.377910   -1.039371    0.426039
     11          6           0       -4.582918   -0.768120   -0.494423
     12          7           0       -4.952434    0.629209   -0.765198
     13          1           0        5.589815   -0.550996   -1.471862
     14          1           0        5.828648    0.973209   -0.986228
     15          1           0        3.451874    0.584804   -1.397315
     16          1           0        3.838232    1.017897    0.267498
     17          1           0        3.833292   -1.362102    0.931949
     18          1           0        3.635706   -1.859354   -0.741095
     19          1           0        1.532652   -2.109166    0.365318
     20          1           0        1.367918   -0.842166   -0.825516
     21          1           0        0.390761   -0.621409    1.693400
     22          1           0        2.009256   -0.079257    2.052592
     23          1           0        0.636356    1.851183    1.707553
     24          1           0        1.760390    1.775810    0.367497
     25          1           0       -0.043749    0.909597   -1.131174
     26          1           0       -0.372057    2.475646   -0.434232
     27          1           0       -1.696503    0.991475    1.418734
     28          1           0       -2.441733    1.579155   -0.046596
     29          1           0       -1.228229   -1.206884    0.285719
     30          1           0       -1.977903   -0.617796   -1.179349
     31          1           0       -3.580005   -0.617448    1.421234
     32          1           0       -3.326389   -2.127358    0.567726
     33          1           0       -5.462529   -1.263957   -0.063825
     34          1           0       -4.403746   -1.251361   -1.463925
     35          1           0       -5.054553    1.128910    0.117056
     36          1           0       -4.192358    1.095336   -1.255453
 ---------------------------------------------------------------------

 SCF Done:  E(RB3LYP) =  -505.052801967     A.U. after    1 cycles

 Excitation energies and oscillator strengths:

 Excited State   1:      Singlet-A      7.2253 eV  171.60 nm  f=0.0307  <S**2>=0.000
      49 -> 50         0.64013
      49 -> 51        -0.18404
      49 -> 52         0.21177
 This state for optimization and/or second-order correction.
 Total Energy, E(TD-HF/TD-DFT) =  -504.787275867
 Copying the excited state density for this state as the 1-particle RhoCI density.

 Excited State   2:      Singlet-A      7.4933 eV  165.46 nm  f=0.0150  <S**2>=0.000
      48 -> 50         0.13438
      48 -> 51         0.59722
      48 -> 52         0.32802
      48 -> 53        -0.11975

 Excited State   3:      Singlet-A      7.8824 eV  157.29 nm  f=0.0047  <S**2>=0.000
      48 -> 50         0.63387
      48 -> 52        -0.28801

 Excited State   4:      Singlet-A      8.1504 eV  152.12 nm  f=0.0055  <S**2>=0.000
      49 -> 50         0.27595
      49 -> 51         0.44019
      49 -> 52        -0.43210
      49 -> 56         0.15652

 Excited State   5:      Singlet-A      8.2865 eV  149.62 nm  f=0.0462  <S**2>=0.000
      49 -> 51         0.14468
      49 -> 52         0.23064
      49 -> 53         0.59600
      49 -> 55        -0.17763
      49 -> 56         0.12577

 Excited State   6:      Singlet-A      8.3733 eV  148.07 nm  f=0.0173  <S**2>=0.000
      48 -> 50         0.26627
      48 -> 51        -0.35936
      48 -> 52         0.51192
      48 -> 56         0.10338

 Excited State   7:      Singlet-A      8.5005 eV  145.86 nm  f=0.0216  <S**2>=0.000
      49 -> 51         0.27919
      49 -> 52         0.13875
      49 -> 54         0.50225
      49 -> 56        -0.33443
      49 -> 59        -0.10743

 Excited State   8:      Singlet-A      8.5361 eV  145.25 nm  f=0.0161  <S**2>=0.000
      48 -> 53         0.44078
      48 -> 54         0.35334
      48 -> 55         0.32246
      48 -> 57        -0.11473
      48 -> 58         0.11471

 Excited State   9:      Singlet-A      8.5389 eV  145.20 nm  f=0.0046  <S**2>=0.000
      49 -> 51         0.40835
      49 -> 52         0.39705
      49 -> 53        -0.21042
      49 -> 54        -0.29102
      49 -> 55         0.15630

 Excited State  10:      Singlet-A      8.6674 eV  143.05 nm  f=0.0323  <S**2>=0.000
      48 -> 52        -0.11585
      48 -> 53        -0.45468
      48 -> 54         0.47732
      48 -> 56         0.11558
      48 -> 57         0.14103

 The electronic state is 1-A.
 Alpha  occ. eigenvalues --  -14.30940 -14.30796 -10.20094 -10.19964 -10.17458
 Alpha  occ. eigenvalues --  -10.17410 -10.17386 -10.17357 -10.17343 -10.17334
 Alpha  occ. eigenvalues --  -10.17331 -10.17319  -0.87331  -0.87252  -0.80254
 Alpha  occ. eigenvalues --   -0.77789  -0.74822  -0.71049  -0.67565  -0.64017
 Alpha  occ. eigenvalues --   -0.60572  -0.57586  -0.56777  -0.54256  -0.48919
 Alpha  occ. eigenvalues --   -0.48177  -0.46646  -0.44908  -0.44509  -0.43764
 Alpha  occ. eigenvalues --   -0.43536  -0.41123  -0.40515  -0.39915  -0.38457
 Alpha  occ. eigenvalues --   -0.37991  -0.37112  -0.36002  -0.34483  -0.34147
 Alpha  occ. eigenvalues --   -0.33410  -0.32716  -0.31867  -0.31580  -0.30308
 Alpha  occ. eigenvalues --   -0.29915  -0.29544  -0.23569  -0.23245
 Alpha virt. eigenvalues --    0.07345   0.08959   0.09539   0.10273   0.10855
 Alpha virt. eigenvalues --    0.12278   0.12909   0.13096   0.14319   0.14643
 Alpha virt. eigenvalues --    0.14981   0.16106   0.16776   0.17451   0.17646

 Mulliken charges:
               1
     1  N   -0.648404
     2  C   -0.044947
     3  C   -0.172973
     4  C   -0.179467
     5  C   -0.166615
     6  C   -0.174935
     7  C   -0.177385
     8  C   -0.116753
     9  C   -0.149150
    10  C   -0.173054
    11  C   -0.113101
    12  N   -0.098121
    13  H    0.247770
    14  H    0.249699
    15  H    0.078208
    16  H    0.103309
    17  H    0.089897
    18  H    0.085348
    19  H    0.083578
    20  H    0.091476
    21  H    0.072172
    22  H    0.077954
    23  H    0.081182
    24  H    0.081967
    25  H    0.085897
    26  H    0.066943
    27  H    0.058992
    28  H   -0.038296
    29  H    0.078498
    30  H    0.054933
    31  H    0.100069
    32  H    0.119776
    33  H    0.131069
    34  H    0.121381
    35  H    0.088372
    36  H    0.004713
 Sum of Mulliken charges =  -0.00000

 Dipole moment (field-independent basis, Debye):
    X=             -3.8434    Y=             -1.4133    Z=             -1.4814  Tot=              4.3547
 Quadrupole moment (field-independent basis, Debye-Ang):
   XX=            -70.4224   YY=            -80.6649   ZZ=            -79.8789
   XY=              9.7639   XZ=             -8.3635   YZ=              0.7742

 Summary of Natural Population Analysis:

                                       Natural Population
                Natural  -----------------------------------------------
    Atom  No    Charge         Core      Valence    Rydberg      Total
 -----------------------------------------------------------------------
      N    1   -0.92891      1.99968     5.91437    0.01486     7.92891
      C    2   -0.26138      1.99935     4.24905    0.01297     6.26138
      C    3   -0.47154      1.99933     4.46002    0.01220     6.47154
      C    4   -0.46862      1.99933     4.45761    0.01168     6.46862
      C    5   -0.47133      1.99933     4.46034    0.01167     6.47133
      C    6   -0.45581      1.99933     4.44543    0.01105     6.45581
      C    7   -0.46356      1.99933     4.45226    0.01196     6.46356
      C    8   -0.47517      1.99932     4.46271    0.01314     6.47517
      C    9   -0.47039      1.99931     4.45835    0.01272     6.47039
      C   10   -0.45368      1.99927     4.44315    0.01127     6.45368
      C   11   -0.35796      1.99933     4.33981    0.01882     6.35796
      N   12   -0.39581      1.99937     5.37569    0.02076     7.39581
      H   13    0.38184      0.00000     0.61519    0.00297     0.61816
      H   14    0.38899      0.00000     0.60836    0.00266     0.61101
      H   15    0.20019      0.00000     0.79701    0.00280     0.79981
      H   16    0.22051      0.00000     0.77685    0.00264     0.77949
      H   17    0.22983      0.00000     0.76723    0.00294     0.77017
      H   18    0.23025      0.00000     0.76741    0.00234     0.76975
      H   19    0.23734      0.00000     0.75960    0.00306     0.76266
      H   20    0.22775      0.00000     0.76976    0.00250     0.77225
      H   21    0.21994      0.00000     0.77224    0.00782     0.78006
      H   22    0.22812      0.00000     0.76875    0.00312     0.77188
      H   23    0.22969      0.00000     0.76754    0.00278     0.77031
      H   24    0.22479      0.00000     0.77191    0.00329     0.77521
      H   25    0.22436      0.00000     0.77312    0.00252     0.77564
      H   26    0.22373      0.00000     0.77040    0.00588     0.77627
      H   27    0.21072      0.00000     0.78081    0.00847     0.78928
      H   28    0.13112      0.00000     0.83023    0.03865     0.86888
      H   29    0.22229      0.00000     0.76679    0.01092     0.77771
      H   30    0.21014      0.00000     0.77285    0.01700     0.78986
      H   31    0.23429      0.00000     0.75266    0.01305     0.76571
      H   32    0.25396      0.00000     0.73909    0.00695     0.74604
      H   33    0.25419      0.00000     0.73274    0.01308     0.74581
      H   34    0.24090      0.00000     0.74410    0.01500     0.75910
      H   35    0.26198      0.00000     0.67286    0.06516     0.73802
      H   36    0.18711      0.00000     0.73490    0.07799     0.81289
 =======================================================================
   * Total *   -0.00016     23.99228    73.53121    0.47667    98.00016

 Normal termination of Gaussian 16 at Sun Jul 21 12:57:07 2024.
