 Gaussian 16, Revision A.03,

 -------------------------------------------------------
 # opt=CalcFc B3LYP/6-31G** SCRF=(Solvent=water) scf=xqc
 -------------------------------------------------------

 ---------------------------------
 BXI4XYDDJVHDL-UHFFFAOYSA-N_conf_0
 ---------------------------------
 Symbolic Z-matrix:
 Charge =  0 Multiplicity = 1

 SCF Done:  E(RB3LYP) =  -802.575079173     A.U. after   13 cycles
 SCF Done:  E(RB3LYP) =  -802.579246015     A.U. after   11 cycles
 SCF Done:  E(RB3LYP) =  -802.579558037     A.U. after   10 cycles
 SCF Done:  E(RB3LYP) =  -802.579576023     A.U. after    9 cycles
 SCF Done:  E(RB3LYP) =  -802.579578894     A.U. after    8 cycles
 Optimization completed.
    -- Stationary point found.
 Normal termination of Gaussian 16 at Thu Jul 11 17:44:15 2024.

 ----------------------------------------------------------------------
 # freq B3LYP/6-31G** SCRF=(Solvent=water) volume NMR pop=NPA density=c
 urrent Geom=AllCheck Guess=Read
 ----------------------------------------------------------------------

 Structure from the checkpoint file:  "BXI4XYDDJVHDL-UHFFFAOYSA-N_conf_0_1.chk"
 ---------------------------------
 BXI4XYDDJVHDL-UHFFFAOYSA-N_conf_0
 ---------------------------------
 Charge =  0 Multiplicity = 1

 SCF Done:  E(RB3LYP) =  -802.579578894     A.U. after    1 cycles

      1  N    Isotropic =   206.9578   Anisotropy =    39.0355

      2  C    Isotropic =    62.1030   Anisotropy =   142.6856

      3  C    Isotropic =    80.7017   Anisotropy =   126.7374

      4  C    Isotropic =    78.3381   Anisotropy =   126.6295

      5  C    Isotropic =    64.6531   Anisotropy =    80.8167

      6  Cl   Isotropic =   755.6920   Anisotropy =   466.4920

      7  C    Isotropic =    82.0086   Anisotropy =   104.8082

      8  C    Isotropic =    59.8079   Anisotropy =   140.3370

      9  N    Isotropic =   205.3833   Anisotropy =    40.1559

     10  H    Isotropic =    29.1555   Anisotropy =    10.8518

     11  H    Isotropic =    28.7796   Anisotropy =    12.9971

     12  H    Isotropic =    25.1566   Anisotropy =     5.2644

     13  H    Isotropic =    25.1848   Anisotropy =     6.1146

     14  H    Isotropic =    25.2569   Anisotropy =     8.0622

     15  H    Isotropic =    29.0134   Anisotropy =    10.8008

     16  H    Isotropic =    28.7389   Anisotropy =    12.7028

  Exact polarizability: 170.881  -1.695 127.557  -0.165   0.779  41.070
 Approx polarizability: 199.365  -4.015 157.734   0.268   2.463  51.584

                      1                      2                      3
                      A                      A                      A
 Frequencies --    125.0106               211.1453               232.0481
 Red. masses --      5.8169                 2.7649                 1.2854
 Frc consts  --      0.0536                 0.0726                 0.0408
 IR Inten    --      0.5406                13.3809                25.7226

                      4                      5                      6
                      A                      A                      A
 Frequencies --    240.1313               311.1463               346.3899
 Red. masses --      5.1667                 3.6130                 4.4393
 Frc consts  --      0.1755                 0.2061                 0.3138
 IR Inten    --      4.5131                 0.2450                 7.8363

                      7                      8                      9
                      A                      A                      A
 Frequencies --    375.8231               448.9238               453.7712
 Red. masses --     11.6319                 2.4930                 1.1183
 Frc consts  --      0.9680                 0.2960                 0.1357
 IR Inten    --      8.7597                21.2008                18.1616

                     10                     11                     12
                      A                      A                      A
 Frequencies --    471.4258               568.5383               578.4464
 Red. masses --      3.6886                 4.9166                 3.8521
 Frc consts  --      0.4830                 0.9363                 0.7594
 IR Inten    --      2.8276                16.4690                26.4085

                     13                     14                     15
                      A                      A                      A
 Frequencies --    650.5122               690.7438               714.0975
 Red. masses --      6.1677                 2.6018                 1.5812
 Frc consts  --      1.5377                 0.7314                 0.4751
 IR Inten    --     94.2092               171.2991               251.0558

                     16                     17                     18
                      A                      A                      A
 Frequencies --    763.4034               792.1850               814.6146
 Red. masses --      1.6505                 2.8799                 1.6641
 Frc consts  --      0.5667                 1.0648                 0.6506
 IR Inten    --    441.5802                 2.6448               135.3020

                     19                     20                     21
                      A                      A                      A
 Frequencies --    850.5225               908.5349               917.3304
 Red. masses --      1.3912                 3.6941                 1.3834
 Frc consts  --      0.5929                 1.7966                 0.6859
 IR Inten    --     50.4440                66.9420                15.0056

                     22                     23                     24
                      A                      A                      A
 Frequencies --   1085.8786              1097.7264              1134.4173
 Red. masses --      1.7355                 2.0252                 1.3277
 Frc consts  --      1.2057                 1.4378                 1.0067
 IR Inten    --      2.3153                35.5298                 1.5021

                     25                     26                     27
                      A                      A                      A
 Frequencies --   1176.2414              1270.9569              1311.7888
 Red. masses --      1.1495                 2.9762                 2.4418
 Frc consts  --      0.9370                 2.8325                 2.4757
 IR Inten    --     13.6556                67.6435                97.6494

                     28                     29                     30
                      A                      A                      A
 Frequencies --   1327.4260              1387.9979              1467.4623
 Red. masses --      1.6846                 4.1304                 3.4446
 Frc consts  --      1.7489                 4.6884                 4.3704
 IR Inten    --     33.6450                 1.4482                13.6124

                     31                     32                     33
                      A                      A                      A
 Frequencies --   1541.3783              1621.0643              1633.9470
 Red. masses --      3.0805                 1.6175                 6.0867
 Frc consts  --      4.3122                 2.5044                 9.5743
 IR Inten    --    308.2068                35.4804                29.9265

                     34                     35                     36
                      A                      A                      A
 Frequencies --   1664.5781              1666.0844              3183.5653
 Red. masses --      1.1304                 2.4286                 1.0898
 Frc consts  --      1.8453                 3.9719                 6.5074
 IR Inten    --     69.3902               115.6251                21.6677

                     37                     38                     39
                      A                      A                      A
 Frequencies --   3205.2812              3223.1823              3520.3203
 Red. masses --      1.0916                 1.0936                 1.0511
 Frc consts  --      6.6076                 6.6940                 7.6743
 IR Inten    --      6.6114                 4.4564                14.4326

                     40                     41                     42
                      A                      A                      A
 Frequencies --   3525.9462              3627.0266              3632.2416
 Red. masses --      1.0502                 1.0945                 1.0954
 Frc consts  --      7.6929                 8.4834                 8.5151
 IR Inten    --     24.9645                39.3400                16.6234

 - Thermochemistry -
 -------------------
 Temperature   298.150 Kelvin.  Pressure   1.00000 Atm.
 Atom     1 has atomic number  7 and mass  14.00307

 Molecular mass:   142.02978 amu.
 Principal axes and moments of inertia in atomic units:
                           1         2         3
     Eigenvalues --   586.539632099.100422680.16686
           X            0.99998  -0.00647  -0.00124
           Y            0.00646   0.99994  -0.00868
           Z            0.00130   0.00867   0.99996
 This molecule is an asymmetric top.
 Rotational symmetry number  1.
 Warning -- assumption of classical behavior for rotation
           may cause significant error
 Rotational temperatures (Kelvin)      0.14767     0.04126     0.03232
 Rotational constants (GHZ):           3.07693     0.85977     0.67337
 Zero-point vibrational energy     327592.9 (Joules/Mol)
                                   78.29658 (Kcal/Mol)
 Warning -- explicit consideration of  12 degrees of freedom as
           vibrations may cause significant error
 Vibrational temperatures:    179.86   303.79   333.87   345.50   447.67
          (Kelvin)            498.38   540.73   645.90   652.88   678.28
                              818.00   832.26   935.94   993.83  1027.43
                             1098.37  1139.78  1172.05  1223.71  1307.18
                             1319.83  1562.34  1579.38  1632.17  1692.35
                             1828.62  1887.37  1909.87  1997.02  2111.35
                             2217.70  2332.35  2350.89  2394.96  2397.12
                             4580.44  4611.68  4637.44  5064.96  5073.05
                             5218.48  5225.99

 Zero-point correction=                           0.124774 (Hartree/Particle)
 Thermal correction to Energy=                    0.133001
 Thermal correction to Enthalpy=                  0.133945
 Thermal correction to Gibbs Free Energy=         0.091939
 Sum of electronic and zero-point Energies=           -802.454805
 Sum of electronic and thermal Energies=              -802.446578
 Sum of electronic and thermal Enthalpies=            -802.445634
 Sum of electronic and thermal Free Energies=         -802.487640

                     E (Thermal)             CV                S
                      KCal/Mol        Cal/Mol-Kelvin    Cal/Mol-Kelvin
 Total                   83.459             32.289             88.410
 Electronic               0.000              0.000              0.000
 Translational            0.889              2.981             40.764
 Rotational               0.889              2.981             29.580
 Vibrational             81.682             26.327             18.066
 Vibration     1          0.610              1.928              3.021
 Vibration     2          0.643              1.824              2.034
 Vibration     3          0.653              1.792              1.863
 Vibration     4          0.657              1.779              1.802
 Vibration     5          0.700              1.652              1.356
 Vibration     6          0.724              1.583              1.183
 Vibration     7          0.747              1.522              1.056
 Vibration     8          0.808              1.363              0.799
 Vibration     9          0.812              1.353              0.784
 Vibration    10          0.828              1.313              0.734
 Vibration    11          0.925              1.099              0.507
 Vibration    12          0.935              1.078              0.488

 Optimization completed.
    -- Stationary point found.
 Normal termination of Gaussian 16 at Thu Jul 11 18:04:30 2024.
 Gaussian 16:  EM64L-G16RevA.03 25-Dec-2016

 ----------------------------------------------------------------------
 # TD(NStates=10, Root=1) B3LYP/6-31G** SCRF=(Solvent=water) volume pop
 =NPA density=current Geom=AllCheck Guess=Read
 ----------------------------------------------------------------------

 Structure from the checkpoint file:  "BXI4XYDDJVHDL-UHFFFAOYSA-N_conf_0_2.chk"
 ---------------------------------
 BXI4XYDDJVHDL-UHFFFAOYSA-N_conf_0
 ---------------------------------
 Charge =  0 Multiplicity = 1

                         Standard orientation:
 ---------------------------------------------------------------------
 Center     Atomic      Atomic             Coordinates (Angstroms)
 Number     Number       Type             X           Y           Z
 ---------------------------------------------------------------------
      1          7           0       -2.940889   -0.733129   -0.040700
      2          6           0       -1.549251   -0.547593   -0.000758
      3          6           0       -0.644964   -1.611742   -0.023490
      4          6           0        0.737427   -1.397963   -0.027902
      5          6           0        1.202572   -0.089441    0.001416
      6         17           0        2.948836    0.217467    0.011701
      7          6           0        0.329995    0.999052    0.009474
      8          6           0       -1.051140    0.781715    0.000936
      9          7           0       -1.972624    1.836888    0.050395
     10          1           0       -3.438594   -0.113300    0.592027
     11          1           0       -3.221358   -1.691741    0.130812
     12          1           0       -1.026137   -2.629418   -0.027254
     13          1           0        1.425746   -2.234876   -0.038979
     14          1           0        0.716287    2.013030    0.010844
     15          1           0       -2.777079    1.685649   -0.550935
     16          1           0       -1.562329    2.743246   -0.141356
 ---------------------------------------------------------------------

 SCF Done:  E(RB3LYP) =  -802.579578894     A.U. after    1 cycles

 Excitation energies and oscillator strengths:

 Excited State   1:      Singlet-A      4.6182 eV  268.47 nm  f=0.1542  <S**2>=0.000
      36 -> 39        -0.23259
      37 -> 38         0.66551
 This state for optimization and/or second-order correction.
 Total Energy, E(TD-HF/TD-DFT) =  -802.409864078
 Copying the excited state density for this state as the 1-particle RhoCI density.

 Excited State   2:      Singlet-A      5.1410 eV  241.17 nm  f=0.0154  <S**2>=0.000
      37 -> 39         0.18035
      37 -> 40         0.67818

 Excited State   3:      Singlet-A      5.2023 eV  238.32 nm  f=0.2361  <S**2>=0.000
      36 -> 38         0.16192
      37 -> 39         0.65905
      37 -> 40        -0.18375

 Excited State   4:      Singlet-A      5.9643 eV  207.88 nm  f=0.2306  <S**2>=0.000
      36 -> 38         0.66459
      36 -> 40        -0.12860
      37 -> 39        -0.15602

 Excited State   5:      Singlet-A      6.0028 eV  206.55 nm  f=0.1269  <S**2>=0.000
      36 -> 38         0.12121
      36 -> 39         0.28379
      36 -> 40         0.62162

 Excited State   6:      Singlet-A      6.0780 eV  203.99 nm  f=0.8071  <S**2>=0.000
      36 -> 39         0.58919
      36 -> 40        -0.30197
      37 -> 38         0.20634

 Excited State   7:      Singlet-A      6.4851 eV  191.18 nm  f=0.0090  <S**2>=0.000
      37 -> 41         0.70068

 Excited State   8:      Singlet-A      7.1725 eV  172.86 nm  f=0.0755  <S**2>=0.000
      35 -> 38         0.68057

 Excited State   9:      Singlet-A      7.3786 eV  168.03 nm  f=0.0070  <S**2>=0.000
      36 -> 41        -0.32255
      37 -> 42         0.61654

 Excited State  10:      Singlet-A      7.5167 eV  164.95 nm  f=0.0473  <S**2>=0.000
      35 -> 39         0.65897
      35 -> 40         0.20392

 The electronic state is 1-A.
 Alpha  occ. eigenvalues -- -101.54832 -14.34128 -14.33972 -10.24301 -10.23094
 Alpha  occ. eigenvalues --  -10.22696 -10.19395 -10.19189 -10.19086  -9.46442
 Alpha  occ. eigenvalues --   -7.22814  -7.21881  -7.21861  -0.93765  -0.89188
 Alpha  occ. eigenvalues --   -0.87599  -0.81209  -0.73906  -0.70889  -0.62296
 Alpha  occ. eigenvalues --   -0.59178  -0.52748  -0.52153  -0.49162  -0.47367
 Alpha  occ. eigenvalues --   -0.44686  -0.43227  -0.43039  -0.40542  -0.37934
 Alpha  occ. eigenvalues --   -0.35964  -0.35348  -0.31878  -0.31275  -0.29235
 Alpha  occ. eigenvalues --   -0.23218  -0.19590
 Alpha virt. eigenvalues --    0.00068   0.01084   0.02860   0.08023   0.11317
 Alpha virt. eigenvalues --    0.12922   0.14953   0.15358   0.16666   0.17752
 Alpha virt. eigenvalues --    0.19388   0.24269   0.26080   0.29991   0.31470

 Mulliken charges:
               1
     1  N   -0.636181
     2  C    0.234535
     3  C   -0.191637
     4  C   -0.096177
     5  C   -0.116583
     6  Cl  -0.057585
     7  C   -0.175886
     8  C    0.226771
     9  N   -0.642728
    10  H    0.298447
    11  H    0.295862
    12  H    0.079657
    13  H    0.106210
    14  H    0.087694
    15  H    0.294785
    16  H    0.292816
 Sum of Mulliken charges =  -0.00000

 Dipole moment (field-independent basis, Debye):
    X=             -6.3057    Y=              0.8555    Z=             -0.0015  Tot=              6.3635
 Quadrupole moment (field-independent basis, Debye-Ang):
   XX=            -49.2241   YY=            -48.7645   ZZ=            -63.0602
   XY=             -1.2331   XZ=             -1.2863   YZ=             -3.0915

 Summary of Natural Population Analysis:

                                       Natural Population
                Natural  -----------------------------------------------
    Atom  No    Charge         Core      Valence    Rydberg      Total
 -----------------------------------------------------------------------
      N    1   -0.77289      1.99950     5.76110    0.01229     7.77289
      C    2    0.13004      1.99892     3.85247    0.01857     5.86996
      C    3   -0.38638      1.99907     4.36747    0.01985     6.38638
      C    4   -0.25557      1.99895     4.23895    0.01768     6.25557
      C    5   -0.03096      1.99855     4.01006    0.02236     6.03096
     Cl    6   -0.02486      9.99968     7.00559    0.01959    17.02486
      C    7   -0.42535      1.99890     4.40379    0.02266     6.42535
      C    8    0.12670      1.99893     3.85521    0.01916     5.87330
      N    9   -0.78480      1.99950     5.77265    0.01265     7.78480
      H   10    0.42200      0.00000     0.57457    0.00344     0.57800
      H   11    0.42419      0.00000     0.57293    0.00287     0.57581
      H   12    0.23730      0.00000     0.76107    0.00163     0.76270
      H   13    0.25302      0.00000     0.74535    0.00163     0.74698
      H   14    0.24502      0.00000     0.75326    0.00172     0.75498
      H   15    0.41981      0.00000     0.57669    0.00351     0.58019
      H   16    0.42275      0.00000     0.57430    0.00295     0.57725
 =======================================================================
   * Total *   -0.00000     25.99200    47.82545    0.18256    74.00000

 Normal termination of Gaussian 16 at Thu Jul 11 18:34:34 2024.
