 Gaussian 16, Revision A.03,

 -------------------------------------------------------
 # opt=CalcFc B3LYP/6-31G** SCRF=(Solvent=water) scf=xqc
 -------------------------------------------------------

 ----------------------------------
 WIOZZYWDYUOMAY-UHFFFAOYSA-N_conf_1
 ----------------------------------
 Symbolic Z-matrix:
 Charge =  0 Multiplicity = 1

 SCF Done:  E(RB3LYP) =  -720.136899137     A.U. after   12 cycles
 SCF Done:  E(RB3LYP) =  -720.142723689     A.U. after   11 cycles
 SCF Done:  E(RB3LYP) =  -720.142934882     A.U. after   12 cycles
 SCF Done:  E(RB3LYP) =  -720.143219962     A.U. after   10 cycles
 SCF Done:  E(RB3LYP) =  -720.143279763     A.U. after    9 cycles
 SCF Done:  E(RB3LYP) =  -720.143282531     A.U. after    9 cycles
 SCF Done:  E(RB3LYP) =  -720.143275520     A.U. after   10 cycles
 SCF Done:  E(RB3LYP) =  -720.143256001     A.U. after   10 cycles
 SCF Done:  E(RB3LYP) =  -720.143281150     A.U. after    9 cycles
 SCF Done:  E(RB3LYP) =  -720.143282586     A.U. after    8 cycles
 SCF Done:  E(RB3LYP) =  -720.143282908     A.U. after    8 cycles
 Optimization completed.
    -- Stationary point found.
 Normal termination of Gaussian 16 at Fri Jul 19 09:51:17 2024.

 ----------------------------------------------------------------------
 # freq B3LYP/6-31G** SCRF=(Solvent=water) volume NMR pop=NPA density=c
 urrent Geom=AllCheck Guess=Read
 ----------------------------------------------------------------------

 Structure from the checkpoint file:  "WIOZZYWDYUOMAY-UHFFFAOYSA-N_conf_1_1.chk"
 ----------------------------------
 WIOZZYWDYUOMAY-UHFFFAOYSA-N_conf_1
 ----------------------------------
 Charge =  0 Multiplicity = 1

 SCF Done:  E(RB3LYP) =  -720.143282908     A.U. after    1 cycles

      1  O    Isotropic =   -28.4499   Anisotropy =   462.5224

      2  C    Isotropic =    31.2695   Anisotropy =    76.2028

      3  C    Isotropic =    77.6068   Anisotropy =   123.5432

      4  C    Isotropic =    73.8291   Anisotropy =   131.5554

      5  C    Isotropic =    56.4620   Anisotropy =   149.4414

      6  N    Isotropic =   195.9844   Anisotropy =    53.1568

      7  C    Isotropic =    77.6061   Anisotropy =   123.5437

      8  C    Isotropic =    31.2696   Anisotropy =    76.2031

      9  O    Isotropic =   144.9924   Anisotropy =   162.1049

     10  O    Isotropic =   -28.4508   Anisotropy =   462.5241

     11  C    Isotropic =    73.8291   Anisotropy =   131.5548

     12  C    Isotropic =    56.4618   Anisotropy =   149.4418

     13  N    Isotropic =   195.9840   Anisotropy =    53.1556

     14  O    Isotropic =   144.9920   Anisotropy =   162.1032

     15  H    Isotropic =    24.3289   Anisotropy =     8.8961

     16  H    Isotropic =    26.5090   Anisotropy =    13.3175

     17  H    Isotropic =    28.3144   Anisotropy =    11.9942

     18  H    Isotropic =    25.1036   Anisotropy =    12.1157

     19  H    Isotropic =    24.3289   Anisotropy =     8.8960

     20  H    Isotropic =    28.3144   Anisotropy =    11.9942

     21  H    Isotropic =    26.5092   Anisotropy =    13.3170

     22  H    Isotropic =    25.1036   Anisotropy =    12.1157

  Exact polarizability: 218.246  -2.658 197.399  -0.289   0.078  49.995
 Approx polarizability: 247.743  -8.866 268.394  -1.903  -1.906  64.597

                      1                      2                      3
                      A                      A                      A
 Frequencies --     41.3943                47.9589                62.3257
 Red. masses --     11.5867                 8.6857                 6.8153
 Frc consts  --      0.0117                 0.0118                 0.0156
 IR Inten    --      6.5139                 0.0000                 0.6768

                      4                      5                      6
                      A                      A                      A
 Frequencies --    156.2850               174.3718               201.5950
 Red. masses --      4.5916                 7.7073                 4.4402
 Frc consts  --      0.0661                 0.1381                 0.1063
 IR Inten    --     12.1362                12.7426                 0.0000

                      7                      8                      9
                      A                      A                      A
 Frequencies --    267.4492               304.7719               360.1619
 Red. masses --      7.2303                 7.7432                 1.9627
 Frc consts  --      0.3047                 0.4238                 0.1500
 IR Inten    --      0.0000                 0.0000                 0.0000

                     10                     11                     12
                      A                      A                      A
 Frequencies --    364.2303               377.2994               379.8380
 Red. masses --      3.0153                 3.6564                 1.1927
 Frc consts  --      0.2357                 0.3067                 0.1014
 IR Inten    --      8.0932                 0.0000                68.9375

                     13                     14                     15
                      A                      A                      A
 Frequencies --    401.4323               427.9283               438.5146
 Red. masses --      1.7624                 4.0511                 3.8310
 Frc consts  --      0.1673                 0.4371                 0.4340
 IR Inten    --      0.0000                54.5168                24.6177

                     16                     17                     18
                      A                      A                      A
 Frequencies --    493.3055               499.2669               522.4999
 Red. masses --      7.1403                 1.5192                 4.4186
 Frc consts  --      1.0238                 0.2231                 0.7107
 IR Inten    --      0.0000               949.9887               231.1464

                     19                     20                     21
                      A                      A                      A
 Frequencies --    554.4117               560.3305               576.2321
 Red. masses --      1.5135                 1.3485                 1.2441
 Frc consts  --      0.2741                 0.2495                 0.2434
 IR Inten    --    251.2330                 0.0001                 0.0000

                     22                     23                     24
                      A                      A                      A
 Frequencies --    623.4993               641.7772               660.2834
 Red. masses --      4.0946                 2.7831                 3.4955
 Frc consts  --      0.9378                 0.6754                 0.8979
 IR Inten    --      0.0000               125.0708                 0.0000

                     25                     26                     27
                      A                      A                      A
 Frequencies --    693.4189               706.4473               751.9064
 Red. masses --      4.3020                 3.4910                 5.7632
 Frc consts  --      1.2187                 1.0265                 1.9197
 IR Inten    --      0.0000               211.7592                 0.0000

                     28                     29                     30
                      A                      A                      A
 Frequencies --    780.1186               781.0733               847.6843
 Red. masses --      6.2538                 9.0496                 3.8112
 Frc consts  --      2.2424                 3.2528                 1.6135
 IR Inten    --      0.0000                80.9237                36.7910

                     31                     32                     33
                      A                      A                      A
 Frequencies --    894.9771               912.4673              1035.3508
 Red. masses --      1.4428                 1.4692                 8.1654
 Frc consts  --      0.6809                 0.7207                 5.1571
 IR Inten    --      0.0000                28.4453                 0.0000

                     34                     35                     36
                      A                      A                      A
 Frequencies --   1095.8875              1133.2572              1150.8467
 Red. masses --      1.8130                 3.0301                 1.2432
 Frc consts  --      1.2829                 2.2928                 0.9702
 IR Inten    --    242.0312               287.7975                 0.0000

                     37                     38                     39
                      A                      A                      A
 Frequencies --   1173.7480              1183.0080              1265.5617
 Red. masses --      1.8684                 2.0928                 2.3202
 Frc consts  --      1.5166                 1.7256                 2.1895
 IR Inten    --    724.6488                 0.0000               279.8473

                     40                     41                     42
                      A                      A                      A
 Frequencies --   1310.1099              1336.8744              1340.2675
 Red. masses --      1.4689                 2.4547                 3.9868
 Frc consts  --      1.4854                 2.5848                 4.2195
 IR Inten    --      0.0000               241.3827                 0.0000

                     43                     44                     45
                      A                      A                      A
 Frequencies --   1373.9072              1382.1450              1483.3638
 Red. masses --      3.0944                 5.0359                 5.6355
 Frc consts  --      3.4414                 5.6681                 7.3060
 IR Inten    --      0.0000               156.3551               738.7648

                     46                     47                     48
                      A                      A                      A
 Frequencies --   1530.7310              1591.2420              1645.8216
 Red. masses --      2.9049                 5.4832                 1.2187
 Frc consts  --      4.0103                 8.1801                 1.9450
 IR Inten    --    341.3053                 0.0000                 0.0003

                     49                     50                     51
                      A                      A                      A
 Frequencies --   1647.0613              1686.1118              1766.5765
 Red. masses --      1.1636                 6.2210                 9.9242
 Frc consts  --      1.8599                10.4203                18.2477
 IR Inten    --    397.3430                 0.0000              1284.9425

                     52                     53                     54
                      A                      A                      A
 Frequencies --   1775.2708              3206.3421              3208.0955
 Red. masses --      9.9973                 1.0896                 1.0903
 Frc consts  --     18.5636                 6.6000                 6.6114
 IR Inten    --      0.0001                17.1995                 0.0000

                     55                     56                     57
                      A                      A                      A
 Frequencies --   3577.8233              3579.5176              3693.0965
 Red. masses --      1.0476                 1.0481                 1.0998
 Frc consts  --      7.9012                 7.9122                 8.8377
 IR Inten    --    144.9589                 0.0001               181.2033

                     58                     59                     60
                      A                      A                      A
 Frequencies --   3693.2934              3747.8533              3748.0498
 Red. masses --      1.0998                 1.0647                 1.0647
 Frc consts  --      8.8388                 8.8110                 8.8125
 IR Inten    --      0.0376               296.6040                 0.0041

 - Thermochemistry -
 -------------------
 Temperature   298.150 Kelvin.  Pressure   1.00000 Atm.
 Atom     1 has atomic number  8 and mass  15.99491

 Molecular mass:   196.04841 amu.
 Principal axes and moments of inertia in atomic units:
                           1         2         3
     Eigenvalues --  1301.262504210.308605506.25477
           X            0.99980   0.01999   0.00190
           Y           -0.02000   0.99978   0.00582
           Z           -0.00179  -0.00586   0.99998
 This molecule is an asymmetric top.
 Rotational symmetry number  1.
 Warning -- assumption of classical behavior for rotation
           may cause significant error
 Rotational temperatures (Kelvin)      0.06656     0.02057     0.01573
 Rotational constants (GHZ):           1.38692     0.42865     0.32776
 Zero-point vibrational energy     429857.0 (Joules/Mol)
                                  102.73828 (Kcal/Mol)
 Warning -- explicit consideration of  21 degrees of freedom as
           vibrations may cause significant error
 Vibrational temperatures:     59.56    69.00    89.67   224.86   250.88
          (Kelvin)            290.05   384.80   438.50   518.19   524.05
                              542.85   546.50   577.57   615.69   630.92
                              709.76   718.33   751.76   797.67   806.19
                              829.07   897.08   923.37   950.00   997.68
                             1016.42  1081.83  1122.42  1123.79  1219.63
                             1287.67  1312.84  1489.64  1576.74  1630.50
                             1655.81  1688.76  1702.08  1820.86  1884.96
                             1923.46  1928.35  1976.75  1988.60  2134.23
                             2202.38  2289.44  2367.97  2369.75  2425.94
                             2541.71  2554.22  4613.21  4615.73  5147.69
                             5150.13  5313.54  5313.83  5392.32  5392.61

 Zero-point correction=                           0.163724 (Hartree/Particle)
 Thermal correction to Energy=                    0.176449
 Thermal correction to Enthalpy=                  0.177393
 Thermal correction to Gibbs Free Energy=         0.124184
 Sum of electronic and zero-point Energies=           -719.979559
 Sum of electronic and thermal Energies=              -719.966834
 Sum of electronic and thermal Enthalpies=            -719.965890
 Sum of electronic and thermal Free Energies=         -720.019098

                     E (Thermal)             CV                S
                      KCal/Mol        Cal/Mol-Kelvin    Cal/Mol-Kelvin
 Total                  110.723             49.234            111.987
 Electronic               0.000              0.000              0.000
 Translational            0.889              2.981             41.725
 Rotational               0.889              2.981             31.779
 Vibrational            108.946             43.272             38.484
 Vibration     1          0.594              1.981              5.191
 Vibration     2          0.595              1.978              4.900
 Vibration     3          0.597              1.972              4.382
 Vibration     4          0.620              1.896              2.594
 Vibration     5          0.627              1.874              2.388
 Vibration     6          0.638              1.838              2.118
 Vibration     7          0.673              1.733              1.613
 Vibration     8          0.696              1.665              1.391
 Vibration     9          0.735              1.554              1.121
 Vibration    10          0.738              1.546              1.104
 Vibration    11          0.748              1.519              1.050
 Vibration    12          0.750              1.513              1.040
 Vibration    13          0.767              1.467              0.957
 Vibration    14          0.789              1.409              0.865
 Vibration    15          0.799              1.386              0.831
 Vibration    16          0.849              1.265              0.675
 Vibration    17          0.855              1.252              0.660
 Vibration    18          0.877              1.200              0.604
 Vibration    19          0.910              1.130              0.535
 Vibration    20          0.916              1.117              0.523
 Vibration    21          0.933              1.083              0.492

 Optimization completed.
    -- Stationary point found.
 Normal termination of Gaussian 16 at Fri Jul 19 09:58:34 2024.
 Gaussian 16:  ES64L-G16RevA.03 25-Dec-2016

 ----------------------------------------------------------------------
 # TD(NStates=10, Root=1) B3LYP/6-31G** SCRF=(Solvent=water) volume pop
 =NPA density=current Geom=AllCheck Guess=Read
 ----------------------------------------------------------------------

 Structure from the checkpoint file:  "WIOZZYWDYUOMAY-UHFFFAOYSA-N_conf_1_2.chk"
 ----------------------------------
 WIOZZYWDYUOMAY-UHFFFAOYSA-N_conf_1
 ----------------------------------
 Charge =  0 Multiplicity = 1

                         Standard orientation:
 ---------------------------------------------------------------------
 Center     Atomic      Atomic             Coordinates (Angstroms)
 Number     Number       Type             X           Y           Z
 ---------------------------------------------------------------------
      1          8           0        3.288981   -1.639880   -0.050805
      2          6           0        2.844275   -0.504803   -0.006636
      3          6           0        1.398000   -0.163016   -0.011585
      4          6           0        0.533224   -1.264126    0.004999
      5          6           0       -0.863170   -1.157710    0.020074
      6          7           0       -1.624644   -2.313921    0.114577
      7          6           0       -1.397997    0.163022    0.011591
      8          6           0       -2.844275    0.504799    0.006636
      9          8           0       -3.673658   -0.565620   -0.063306
     10          8           0       -3.288992    1.639869    0.050884
     11          6           0       -0.533224    1.264131   -0.004986
     12          6           0        0.863171    1.157715   -0.020063
     13          7           0        1.624638    2.313931   -0.114558
     14          8           0        3.673672    0.565612    0.063192
     15          1           0        0.986598   -2.249548    0.015689
     16          1           0       -2.583721   -2.242303   -0.191631
     17          1           0       -1.158975   -3.153168   -0.202236
     18          1           0       -4.583236   -0.220866   -0.073208
     19          1           0       -0.986597    2.249554   -0.015672
     20          1           0        1.158961    3.153174    0.202251
     21          1           0        2.583716    2.242320    0.191647
     22          1           0        4.583246    0.220848    0.073108
 ---------------------------------------------------------------------

 SCF Done:  E(RB3LYP) =  -720.143282908     A.U. after    1 cycles

 Excitation energies and oscillator strengths:

 Excited State   1:      Singlet-A      2.7243 eV  455.11 nm  f=0.1664  <S**2>=0.000
      51 -> 52         0.70540
 This state for optimization and/or second-order correction.
 Total Energy, E(TD-HF/TD-DFT) =  -720.043167871
 Copying the excited state density for this state as the 1-particle RhoCI density.

 Excited State   2:      Singlet-A      4.6735 eV  265.29 nm  f=0.0000  <S**2>=0.000
      47 -> 53        -0.15007
      48 -> 52         0.67710
      51 -> 53         0.10747

 Excited State   3:      Singlet-A      4.7220 eV  262.57 nm  f=0.0000  <S**2>=0.000
      48 -> 52        -0.10948
      51 -> 53         0.69534

 Excited State   4:      Singlet-A      4.7994 eV  258.33 nm  f=0.1123  <S**2>=0.000
      47 -> 52         0.51217
      48 -> 53        -0.13580
      50 -> 52         0.43462
      51 -> 54        -0.16124

 Excited State   5:      Singlet-A      4.8123 eV  257.64 nm  f=0.0000  <S**2>=0.000
      49 -> 52         0.70001

 Excited State   6:      Singlet-A      4.8552 eV  255.37 nm  f=0.1238  <S**2>=0.000
      47 -> 52        -0.44835
      48 -> 53         0.10911
      50 -> 52         0.46304
      51 -> 54        -0.25967

 Excited State   7:      Singlet-A      5.1061 eV  242.82 nm  f=0.7816  <S**2>=0.000
      50 -> 52         0.30058
      51 -> 54         0.63030

 Excited State   8:      Singlet-A      6.4537 eV  192.11 nm  f=0.0000  <S**2>=0.000
      46 -> 52         0.68254
      50 -> 53        -0.16244

 Excited State   9:      Singlet-A      6.4672 eV  191.71 nm  f=0.1739  <S**2>=0.000
      45 -> 52         0.64831
      50 -> 54        -0.14972
      51 -> 55         0.17335

 Excited State  10:      Singlet-A      6.5240 eV  190.04 nm  f=0.0249  <S**2>=0.000
      44 -> 52        -0.29386
      45 -> 52        -0.23185
      50 -> 54        -0.37414
      51 -> 55         0.41618
      51 -> 57        -0.18585

 The electronic state is 1-A.
 Alpha  occ. eigenvalues --  -19.20489 -19.20489 -19.14343 -19.14342 -14.33791
 Alpha  occ. eigenvalues --  -14.33791 -10.33034 -10.33033 -10.24143 -10.24142
 Alpha  occ. eigenvalues --  -10.21367 -10.21366 -10.19620 -10.19620  -1.11222
 Alpha  occ. eigenvalues --   -1.11218  -1.01835  -1.01835  -0.92724  -0.91544
 Alpha  occ. eigenvalues --   -0.83634  -0.78404  -0.72505  -0.69705  -0.63409
 Alpha  occ. eigenvalues --   -0.61755  -0.59249  -0.54628  -0.53867  -0.51472
 Alpha  occ. eigenvalues --   -0.50806  -0.48688  -0.47943  -0.47178  -0.45809
 Alpha  occ. eigenvalues --   -0.45320  -0.43594  -0.43489  -0.42330  -0.39680
 Alpha  occ. eigenvalues --   -0.39280  -0.39198  -0.35900  -0.34876  -0.32901
 Alpha  occ. eigenvalues --   -0.32850  -0.28972  -0.28403  -0.27307  -0.26626
 Alpha  occ. eigenvalues --   -0.18923
 Alpha virt. eigenvalues --   -0.07018   0.00997   0.01208   0.08021   0.08222
 Alpha virt. eigenvalues --    0.08809   0.10342   0.11763   0.13434   0.15605
 Alpha virt. eigenvalues --    0.17349   0.18609   0.19682   0.22659   0.22984

 Mulliken charges:
               1
     1  O   -0.557093
     2  C    0.511845
     3  C    0.043266
     4  C   -0.170797
     5  C    0.244161
     6  N   -0.610082
     7  C    0.043264
     8  C    0.511844
     9  O   -0.537853
    10  O   -0.557092
    11  C   -0.170800
    12  C    0.244160
    13  N   -0.610082
    14  O   -0.537853
    15  H    0.115120
    16  H    0.315174
    17  H    0.308239
    18  H    0.338024
    19  H    0.115121
    20  H    0.308240
    21  H    0.315172
    22  H    0.338023
 Sum of Mulliken charges =  -0.00000

 Dipole moment (field-independent basis, Debye):
    X=              0.0000    Y=              0.0000    Z=             -0.0001  Tot=              0.0001
 Quadrupole moment (field-independent basis, Debye-Ang):
   XX=            -72.5494   YY=            -67.9719   ZZ=            -81.2300
   XY=             27.3708   XZ=              4.6222   YZ=              4.7746

 Summary of Natural Population Analysis:

                                       Natural Population
                Natural  -----------------------------------------------
    Atom  No    Charge         Core      Valence    Rydberg      Total
 -----------------------------------------------------------------------
      O    1   -0.68410      1.99979     6.66572    0.01859     8.68410
      C    2    0.74896      1.99938     3.20714    0.04452     5.25104
      C    3   -0.21541      1.99886     4.19975    0.01680     6.21541
      C    4   -0.24217      1.99906     4.22730    0.01580     6.24217
      C    5    0.20524      1.99894     3.77767    0.01816     5.79476
      N    6   -0.72064      1.99947     5.71093    0.01024     7.72064
      C    7   -0.21541      1.99886     4.19975    0.01680     6.21541
      C    8    0.74896      1.99938     3.20714    0.04452     5.25104
      O    9   -0.75223      1.99977     6.74277    0.00970     8.75223
      O   10   -0.68410      1.99979     6.66571    0.01859     8.68410
      C   11   -0.24217      1.99906     4.22731    0.01580     6.24217
      C   12    0.20524      1.99894     3.77766    0.01816     5.79476
      N   13   -0.72064      1.99947     5.71093    0.01024     7.72064
      O   14   -0.75223      1.99977     6.74277    0.00970     8.75223
      H   15    0.26145      0.00000     0.73586    0.00270     0.73855
      H   16    0.44607      0.00000     0.55110    0.00283     0.55393
      H   17    0.43161      0.00000     0.56616    0.00223     0.56839
      H   18    0.52122      0.00000     0.47315    0.00563     0.47878
      H   19    0.26145      0.00000     0.73586    0.00270     0.73855
      H   20    0.43161      0.00000     0.56616    0.00223     0.56839
      H   21    0.44607      0.00000     0.55110    0.00283     0.55393
      H   22    0.52122      0.00000     0.47315    0.00563     0.47878
 =======================================================================
   * Total *   -0.00000     27.99053    73.71508    0.29439   102.00000

 Normal termination of Gaussian 16 at Fri Jul 19 10:08:52 2024.
