 Gaussian 16, Revision A.03,

 -------------------------------------------------------
 # opt=CalcFc B3LYP/6-31G** SCRF=(Solvent=water) scf=xqc
 -------------------------------------------------------

 ----------------------------------
 WIOZZYWDYUOMAY-UHFFFAOYSA-N_conf_2
 ----------------------------------
 Symbolic Z-matrix:
 Charge =  0 Multiplicity = 1

 SCF Done:  E(RB3LYP) =  -720.140231419     A.U. after   13 cycles
 SCF Done:  E(RB3LYP) =  -720.145552482     A.U. after   12 cycles
 SCF Done:  E(RB3LYP) =  -720.145751321     A.U. after   14 cycles
 SCF Done:  E(RB3LYP) =  -720.145566349     A.U. after   13 cycles
 SCF Done:  E(RB3LYP) =  -720.146008711     A.U. after   11 cycles
 SCF Done:  E(RB3LYP) =  -720.146041840     A.U. after   10 cycles
 SCF Done:  E(RB3LYP) =  -720.146042150     A.U. after    8 cycles
 Optimization completed.
    -- Stationary point found.
 Normal termination of Gaussian 16 at Fri Jul 19 09:52:21 2024.

 ----------------------------------------------------------------------
 # freq B3LYP/6-31G** SCRF=(Solvent=water) volume NMR pop=NPA density=c
 urrent Geom=AllCheck Guess=Read
 ----------------------------------------------------------------------

 Structure from the checkpoint file:  "WIOZZYWDYUOMAY-UHFFFAOYSA-N_conf_2_1.chk"
 ----------------------------------
 WIOZZYWDYUOMAY-UHFFFAOYSA-N_conf_2
 ----------------------------------
 Charge =  0 Multiplicity = 1

 SCF Done:  E(RB3LYP) =  -720.146042150     A.U. after    1 cycles

      1  O    Isotropic =   -28.1867   Anisotropy =   462.8724

      2  C    Isotropic =    31.3255   Anisotropy =    76.0683

      3  C    Isotropic =    77.3958   Anisotropy =   125.0064

      4  C    Isotropic =    74.8052   Anisotropy =   132.5461

      5  C    Isotropic =    53.8540   Anisotropy =   151.0390

      6  N    Isotropic =   198.1620   Anisotropy =    52.8680

      7  C    Isotropic =    79.3867   Anisotropy =   127.0503

      8  C    Isotropic =    29.4501   Anisotropy =    89.0740

      9  O    Isotropic =   147.0260   Anisotropy =   160.0897

     10  O    Isotropic =   -26.4602   Anisotropy =   466.6218

     11  C    Isotropic =    75.9335   Anisotropy =   128.4920

     12  C    Isotropic =    56.6998   Anisotropy =   148.9752

     13  N    Isotropic =   196.0871   Anisotropy =    53.2367

     14  O    Isotropic =   145.1374   Anisotropy =   162.2805

     15  H    Isotropic =    24.3571   Anisotropy =     8.6629

     16  H    Isotropic =    25.1094   Anisotropy =    14.7162

     17  H    Isotropic =    28.3394   Anisotropy =    12.0100

     18  H    Isotropic =    25.4941   Anisotropy =    11.5789

     19  H    Isotropic =    24.3846   Anisotropy =     9.4028

     20  H    Isotropic =    28.3718   Anisotropy =    11.8404

     21  H    Isotropic =    26.5082   Anisotropy =    13.4048

     22  H    Isotropic =    25.0969   Anisotropy =    12.1197

  Exact polarizability: 220.613  -0.037 195.937   0.076   0.080  49.933
 Approx polarizability: 254.809   1.056 262.642   0.505   0.219  64.445

                      1                      2                      3
                      A                      A                      A
 Frequencies --     43.5655                56.0733                72.3078
 Red. masses --     10.8384                 6.8746                 9.7009
 Frc consts  --      0.0121                 0.0127                 0.0299
 IR Inten    --      1.6923                 0.1679                 1.1971

                      4                      5                      6
                      A                      A                      A
 Frequencies --    155.5699               174.1355               201.7193
 Red. masses --      4.4652                 7.4782                 4.6998
 Frc consts  --      0.0637                 0.1336                 0.1127
 IR Inten    --      8.1301                 3.5901                 2.0715

                      7                      8                      9
                      A                      A                      A
 Frequencies --    262.8243               308.9485               350.1992
 Red. masses --      6.4437                 8.7027                 2.2551
 Frc consts  --      0.2623                 0.4894                 0.1629
 IR Inten    --      5.2569                 3.0608                49.1860

                     10                     11                     12
                      A                      A                      A
 Frequencies --    366.0409               377.5949               385.8692
 Red. masses --      2.6591                 2.2040                 1.8384
 Frc consts  --      0.2099                 0.1851                 0.1613
 IR Inten    --     44.0891                13.3196                25.3892

                     13                     14                     15
                      A                      A                      A
 Frequencies --    416.2810               429.3284               447.7096
 Red. masses --      1.4889                 2.7029                 8.2349
 Frc consts  --      0.1520                 0.2935                 0.9725
 IR Inten    --    109.3551                55.0669                11.1225

                     16                     17                     18
                      A                      A                      A
 Frequencies --    489.9539               501.4992               530.6374
 Red. masses --      6.2679                 3.4149                 1.6291
 Frc consts  --      0.8865                 0.5060                 0.2703
 IR Inten    --     29.3678               146.5645               533.5944

                     19                     20                     21
                      A                      A                      A
 Frequencies --    547.4092               571.2017               572.9177
 Red. masses --      1.4726                 1.3226                 1.2740
 Frc consts  --      0.2600                 0.2543                 0.2464
 IR Inten    --     29.8043               236.2001               276.7644

                     22                     23                     24
                      A                      A                      A
 Frequencies --    614.6437               636.5226               671.0763
 Red. masses --      3.3895                 2.7651                 3.7530
 Frc consts  --      0.7545                 0.6601                 0.9958
 IR Inten    --     70.4353                35.2163                34.2682

                     25                     26                     27
                      A                      A                      A
 Frequencies --    692.8197               714.3628               751.6958
 Red. masses --      4.3184                 3.7718                 5.6157
 Frc consts  --      1.2213                 1.1341                 1.8695
 IR Inten    --      6.8138               190.0604                 3.1198

                     28                     29                     30
                      A                      A                      A
 Frequencies --    779.1034               785.0443               852.2599
 Red. masses --      6.0580                 9.2369                 3.5331
 Frc consts  --      2.1666                 3.3540                 1.5120
 IR Inten    --      6.8636                81.0115                34.7591

                     31                     32                     33
                      A                      A                      A
 Frequencies --    883.5409               904.7347              1044.6956
 Red. masses --      1.5211                 1.4712                 9.1959
 Frc consts  --      0.6996                 0.7095                 5.9132
 IR Inten    --      4.4718                22.3522                44.5534

                     34                     35                     36
                      A                      A                      A
 Frequencies --   1102.2501              1115.7151              1151.2352
 Red. masses --      1.7291                 3.4155                 1.3261
 Frc consts  --      1.2378                 2.5050                 1.0355
 IR Inten    --    182.4727               222.7328                17.4828

                     37                     38                     39
                      A                      A                      A
 Frequencies --   1175.4270              1182.4032              1275.0004
 Red. masses --      1.8166                 1.8739                 2.1983
 Frc consts  --      1.4788                 1.5436                 2.1055
 IR Inten    --    697.9571               476.4840               100.9342

                     40                     41                     42
                      A                      A                      A
 Frequencies --   1318.6498              1339.5066              1345.1780
 Red. masses --      1.4408                 3.9545                 2.6299
 Frc consts  --      1.4760                 4.1805                 2.8038
 IR Inten    --      4.2721                 9.5762               300.6970

                     43                     44                     45
                      A                      A                      A
 Frequencies --   1379.5082              1400.3914              1476.8511
 Red. masses --      3.8429                 3.9889                 5.6476
 Frc consts  --      4.3088                 4.6089                 7.2575
 IR Inten    --    138.8500               103.8707               382.8777

                     46                     47                     48
                      A                      A                      A
 Frequencies --   1530.1595              1587.7622              1620.6419
 Red. masses --      2.6943                 3.6186                 1.5238
 Frc consts  --      3.7168                 5.3748                 2.3580
 IR Inten    --    238.8206               121.9136               362.4775

                     49                     50                     51
                      A                      A                      A
 Frequencies --   1647.4443              1682.8951              1754.4666
 Red. masses --      1.1890                 5.5832                 7.1287
 Frc consts  --      1.9013                 9.3164                12.9286
 IR Inten    --    190.5171                28.1069               468.7371

                     52                     53                     54
                      A                      A                      A
 Frequencies --   1771.4015              3209.3931              3217.0119
 Red. masses --      9.8921                 1.0900                 1.0903
 Frc consts  --     18.2882                 6.6149                 6.6483
 IR Inten    --    636.5967                 9.9566                 5.4629

                     55                     56                     57
                      A                      A                      A
 Frequencies --   3549.0527              3577.1576              3676.4952
 Red. masses --      1.0481                 1.0480                 1.1004
 Frc consts  --      7.7780                 7.9009                 8.7630
 IR Inten    --    100.7766                66.7878                87.6580

                     58                     59                     60
                      A                      A                      A
 Frequencies --   3691.3523              3748.0978              3754.6873
 Red. masses --      1.0996                 1.0647                 1.0647
 Frc consts  --      8.8280                 8.8124                 8.8438
 IR Inten    --     90.7758               153.5140               151.8629

 - Thermochemistry -
 -------------------
 Temperature   298.150 Kelvin.  Pressure   1.00000 Atm.
 Atom     1 has atomic number  8 and mass  15.99491

 Molecular mass:   196.04841 amu.
 Principal axes and moments of inertia in atomic units:
                           1         2         3
     Eigenvalues --  1303.786804193.191095490.35101
           X            0.99994   0.01049  -0.00040
           Y           -0.01049   0.99994  -0.00023
           Z            0.00039   0.00023   1.00000
 This molecule is an asymmetric top.
 Rotational symmetry number  1.
 Warning -- assumption of classical behavior for rotation
           may cause significant error
 Rotational temperatures (Kelvin)      0.06643     0.02066     0.01578
 Rotational constants (GHZ):           1.38423     0.43040     0.32871
 Zero-point vibrational energy     429892.5 (Joules/Mol)
                                  102.74678 (Kcal/Mol)
 Warning -- explicit consideration of  22 degrees of freedom as
           vibrations may cause significant error
 Vibrational temperatures:     62.68    80.68   104.03   223.83   250.54
          (Kelvin)            290.23   378.15   444.51   503.86   526.65
                              543.27   555.18   598.94   617.71   644.15
                              704.93   721.55   763.47   787.60   821.83
                              824.30   884.34   915.81   965.53   996.81
                             1027.81  1081.52  1120.96  1129.50  1226.21
                             1271.22  1301.71  1503.08  1585.89  1605.27
                             1656.37  1691.18  1701.21  1834.44  1897.24
                             1927.25  1935.41  1984.80  2014.85  2124.86
                             2201.56  2284.44  2331.74  2370.30  2421.31
                             2524.29  2548.65  4617.60  4628.56  5106.30
                             5146.73  5289.66  5311.03  5392.68  5402.16

 Zero-point correction=                           0.163737 (Hartree/Particle)
 Thermal correction to Energy=                    0.176397
 Thermal correction to Enthalpy=                  0.177342
 Thermal correction to Gibbs Free Energy=         0.124504
 Sum of electronic and zero-point Energies=           -719.982305
 Sum of electronic and thermal Energies=              -719.969645
 Sum of electronic and thermal Enthalpies=            -719.968700
 Sum of electronic and thermal Free Energies=         -720.021539

                     E (Thermal)             CV                S
                      KCal/Mol        Cal/Mol-Kelvin    Cal/Mol-Kelvin
 Total                  110.691             49.152            111.207
 Electronic               0.000              0.000              0.000
 Translational            0.889              2.981             41.725
 Rotational               0.889              2.981             31.774
 Vibrational            108.914             43.190             37.709
 Vibration     1          0.595              1.980              5.090
 Vibration     2          0.596              1.975              4.591
 Vibration     3          0.598              1.967              4.090
 Vibration     4          0.620              1.896              2.603
 Vibration     5          0.627              1.874              2.390
 Vibration     6          0.639              1.837              2.117
 Vibration     7          0.670              1.741              1.643
 Vibration     8          0.698              1.657              1.368
 Vibration     9          0.727              1.575              1.165
 Vibration    10          0.739              1.542              1.096
 Vibration    11          0.748              1.518              1.049
 Vibration    12          0.755              1.500              1.016
 Vibration    13          0.779              1.435              0.905
 Vibration    14          0.791              1.406              0.861
 Vibration    15          0.807              1.366              0.803
 Vibration    16          0.846              1.272              0.684
 Vibration    17          0.857              1.247              0.654
 Vibration    18          0.886              1.182              0.586
 Vibration    19          0.903              1.145              0.550
 Vibration    20          0.927              1.094              0.502
 Vibration    21          0.929              1.090              0.499
 Vibration    22          0.974              1.001              0.425

 Optimization completed.
    -- Stationary point found.
 Normal termination of Gaussian 16 at Fri Jul 19 10:01:01 2024.
 Gaussian 16:  ES64L-G16RevA.03 25-Dec-2016

 ----------------------------------------------------------------------
 # TD(NStates=10, Root=1) B3LYP/6-31G** SCRF=(Solvent=water) volume pop
 =NPA density=current Geom=AllCheck Guess=Read
 ----------------------------------------------------------------------

 Structure from the checkpoint file:  "WIOZZYWDYUOMAY-UHFFFAOYSA-N_conf_2_2.chk"
 ----------------------------------
 WIOZZYWDYUOMAY-UHFFFAOYSA-N_conf_2
 ----------------------------------
 Charge =  0 Multiplicity = 1

                         Standard orientation:
 ---------------------------------------------------------------------
 Center     Atomic      Atomic             Coordinates (Angstroms)
 Number     Number       Type             X           Y           Z
 ---------------------------------------------------------------------
      1          8           0       -3.316494    1.599073   -0.014777
      2          6           0       -2.849273    0.472734    0.017076
      3          6           0       -1.396304    0.159989   -0.019260
      4          6           0       -0.555766    1.279995   -0.024547
      5          6           0        0.841399    1.194698   -0.034410
      6          7           0        1.607315    2.343578   -0.107391
      7          6           0        1.402581   -0.115082   -0.023298
      8          6           0        2.867975   -0.303240    0.027054
      9          8           0        3.251954   -1.597893   -0.003715
     10          8           0        3.698205    0.597549    0.097033
     11          6           0        0.562989   -1.236418   -0.030224
     12          6           0       -0.835977   -1.150990   -0.036192
     13          7           0       -1.578713   -2.320940   -0.121368
     14          8           0       -3.656579   -0.613313    0.101175
     15          1           0       -1.027127    2.256788   -0.017960
     16          1           0        2.578140    2.228274    0.153932
     17          1           0        1.165414    3.187074    0.230199
     18          1           0        4.223076   -1.602592    0.045098
     19          1           0        1.019515   -2.219454   -0.027410
     20          1           0       -1.095096   -3.150911    0.193437
     21          1           0       -2.534453   -2.265251    0.198479
     22          1           0       -4.572112   -0.285832    0.130623
 ---------------------------------------------------------------------

 SCF Done:  E(RB3LYP) =  -720.146042150     A.U. after    1 cycles

 Excitation energies and oscillator strengths:

 Excited State   1:      Singlet-A      2.6814 eV  462.39 nm  f=0.1607  <S**2>=0.000
      51 -> 52         0.70576
 This state for optimization and/or second-order correction.
 Total Energy, E(TD-HF/TD-DFT) =  -720.047503519
 Copying the excited state density for this state as the 1-particle RhoCI density.

 Excited State   2:      Singlet-A      4.6711 eV  265.43 nm  f=0.0024  <S**2>=0.000
      47 -> 52        -0.11029
      48 -> 52        -0.39951
      49 -> 52        -0.11261
      51 -> 53         0.53405
      51 -> 54         0.10604

 Excited State   3:      Singlet-A      4.6931 eV  264.19 nm  f=0.0061  <S**2>=0.000
      47 -> 53        -0.10802
      48 -> 52         0.52901
      51 -> 53         0.42535

 Excited State   4:      Singlet-A      4.7373 eV  261.72 nm  f=0.0010  <S**2>=0.000
      47 -> 52         0.58349
      48 -> 52        -0.11508
      48 -> 53        -0.11811
      49 -> 52         0.33258
      51 -> 53         0.10672

 Excited State   5:      Singlet-A      4.7775 eV  259.52 nm  f=0.0357  <S**2>=0.000
      47 -> 52        -0.28870
      48 -> 52        -0.13839
      49 -> 52         0.49462
      50 -> 52        -0.36623

 Excited State   6:      Singlet-A      4.8588 eV  255.17 nm  f=0.1685  <S**2>=0.000
      47 -> 52        -0.18078
      49 -> 52         0.33312
      50 -> 52         0.49859
      51 -> 54        -0.31357

 Excited State   7:      Singlet-A      5.1117 eV  242.55 nm  f=0.8380  <S**2>=0.000
      50 -> 52         0.31278
      51 -> 53        -0.13455
      51 -> 54         0.60328

 Excited State   8:      Singlet-A      6.3303 eV  195.86 nm  f=0.0811  <S**2>=0.000
      46 -> 52         0.68040
      50 -> 54        -0.11456

 Excited State   9:      Singlet-A      6.4454 eV  192.36 nm  f=0.0605  <S**2>=0.000
      45 -> 52         0.64568
      50 -> 53        -0.14693
      50 -> 54         0.12276
      51 -> 55         0.14307
      51 -> 56        -0.10050

 Excited State  10:      Singlet-A      6.5373 eV  189.66 nm  f=0.0805  <S**2>=0.000
      44 -> 52         0.10738
      45 -> 52        -0.24290
      50 -> 53        -0.11416
      50 -> 54         0.24777
      51 -> 55         0.53710
      51 -> 56        -0.19887

 The electronic state is 1-A.
 Alpha  occ. eigenvalues --  -19.20504 -19.20022 -19.14802 -19.14355 -14.33772
 Alpha  occ. eigenvalues --  -14.33580 -10.33121 -10.33050 -10.24153 -10.24009
 Alpha  occ. eigenvalues --  -10.21418 -10.21280 -10.19797 -10.19591  -1.11239
 Alpha  occ. eigenvalues --   -1.11133  -1.01890  -1.01850  -0.92667  -0.91459
 Alpha  occ. eigenvalues --   -0.83633  -0.78546  -0.72423  -0.69589  -0.63743
 Alpha  occ. eigenvalues --   -0.61354  -0.59308  -0.54837  -0.52719  -0.51788
 Alpha  occ. eigenvalues --   -0.50616  -0.49102  -0.48243  -0.47068  -0.45843
 Alpha  occ. eigenvalues --   -0.45324  -0.44222  -0.43500  -0.41468  -0.40168
 Alpha  occ. eigenvalues --   -0.39717  -0.38411  -0.36467  -0.35143  -0.32931
 Alpha  occ. eigenvalues --   -0.32429  -0.28772  -0.28528  -0.27347  -0.26746
 Alpha  occ. eigenvalues --   -0.18846
 Alpha virt. eigenvalues --   -0.07109   0.00901   0.01295   0.08057   0.08711
 Alpha virt. eigenvalues --    0.08756   0.10160   0.11795   0.13768   0.15416
 Alpha virt. eigenvalues --    0.17678   0.18512   0.19690   0.22839   0.23153

 Mulliken charges:
               1
     1  O   -0.555931
     2  C    0.513733
     3  C    0.040086
     4  C   -0.170593
     5  C    0.248410
     6  N   -0.610625
     7  C    0.036229
     8  C    0.520436
     9  O   -0.521536
    10  O   -0.576219
    11  C   -0.172164
    12  C    0.245698
    13  N   -0.611107
    14  O   -0.537858
    15  H    0.114600
    16  H    0.311295
    17  H    0.306057
    18  H    0.335092
    19  H    0.123165
    20  H    0.307771
    21  H    0.315163
    22  H    0.338297
 Sum of Mulliken charges =  -0.00000

 Dipole moment (field-independent basis, Debye):
    X=             -0.6451    Y=             -3.7176    Z=              1.8969  Tot=              4.2232
 Quadrupole moment (field-independent basis, Debye-Ang):
   XX=            -79.6539   YY=            -62.4353   ZZ=            -81.2277
   XY=             10.8530   XZ=             -1.0455   YZ=             -0.2200

 Summary of Natural Population Analysis:

                                       Natural Population
                Natural  -----------------------------------------------
    Atom  No    Charge         Core      Valence    Rydberg      Total
 -----------------------------------------------------------------------
      O    1   -0.68319      1.99979     6.66481    0.01859     8.68319
      C    2    0.75089      1.99938     3.20523    0.04450     5.24911
      C    3   -0.21637      1.99886     4.20081    0.01670     6.21637
      C    4   -0.24405      1.99906     4.22926    0.01572     6.24405
      C    5    0.20854      1.99895     3.77377    0.01874     5.79146
      N    6   -0.71860      1.99946     5.70907    0.01007     7.71860
      C    7   -0.20981      1.99887     4.19467    0.01627     6.20981
      C    8    0.74830      1.99936     3.20888    0.04346     5.25170
      O    9   -0.73372      1.99978     6.72397    0.00997     8.73372
      O   10   -0.70269      1.99978     6.68491    0.01800     8.70269
      C   11   -0.24791      1.99906     4.23392    0.01493     6.24791
      C   12    0.20697      1.99895     3.77583    0.01825     5.79303
      N   13   -0.72328      1.99947     5.71359    0.01022     7.72328
      O   14   -0.75190      1.99977     6.74244    0.00969     8.75190
      H   15    0.26201      0.00000     0.73527    0.00272     0.73799
      H   16    0.44699      0.00000     0.54876    0.00425     0.55301
      H   17    0.43107      0.00000     0.56666    0.00227     0.56893
      H   18    0.51607      0.00000     0.47851    0.00543     0.48393
      H   19    0.26205      0.00000     0.73603    0.00192     0.73795
      H   20    0.43113      0.00000     0.56663    0.00224     0.56887
      H   21    0.44603      0.00000     0.55114    0.00282     0.55397
      H   22    0.52147      0.00000     0.47291    0.00562     0.47853
 =======================================================================
   * Total *    0.00000     27.99052    73.71707    0.29241   102.00000

 Normal termination of Gaussian 16 at Fri Jul 19 10:12:41 2024.
