 Gaussian 16, Revision A.03,

 -------------------------------------------------------
 # opt=CalcFc B3LYP/6-31G** SCRF=(Solvent=water) scf=xqc
 -------------------------------------------------------

 ----------------------------------
 WIOZZYWDYUOMAY-UHFFFAOYSA-N_conf_3
 ----------------------------------
 Symbolic Z-matrix:
 Charge =  0 Multiplicity = 1

 SCF Done:  E(RB3LYP) =  -720.136654908     A.U. after   12 cycles
 SCF Done:  E(RB3LYP) =  -720.142727033     A.U. after   11 cycles
 SCF Done:  E(RB3LYP) =  -720.142794671     A.U. after   13 cycles
 SCF Done:  E(RB3LYP) =  -720.143175481     A.U. after   11 cycles
 SCF Done:  E(RB3LYP) =  -720.143293123     A.U. after   10 cycles
 SCF Done:  E(RB3LYP) =  -720.143295897     A.U. after    8 cycles
 SCF Done:  E(RB3LYP) =  -720.143291407     A.U. after    9 cycles
 SCF Done:  E(RB3LYP) =  -720.143281920     A.U. after   10 cycles
 SCF Done:  E(RB3LYP) =  -720.143295433     A.U. after    9 cycles
 SCF Done:  E(RB3LYP) =  -720.143296111     A.U. after    8 cycles
 SCF Done:  E(RB3LYP) =  -720.143296331     A.U. after    7 cycles
 Optimization completed.
    -- Stationary point found.
 Normal termination of Gaussian 16 at Fri Jul 19 10:06:22 2024.

 ----------------------------------------------------------------------
 # freq B3LYP/6-31G** SCRF=(Solvent=water) volume NMR pop=NPA density=c
 urrent Geom=AllCheck Guess=Read
 ----------------------------------------------------------------------

 Structure from the checkpoint file:  "WIOZZYWDYUOMAY-UHFFFAOYSA-N_conf_3_1.chk"
 ----------------------------------
 WIOZZYWDYUOMAY-UHFFFAOYSA-N_conf_3
 ----------------------------------
 Charge =  0 Multiplicity = 1

 SCF Done:  E(RB3LYP) =  -720.143296331     A.U. after    1 cycles

      1  O    Isotropic =   -28.4541   Anisotropy =   462.6737

      2  C    Isotropic =    31.2873   Anisotropy =    76.1227

      3  C    Isotropic =    77.6379   Anisotropy =   123.5000

      4  C    Isotropic =    73.8643   Anisotropy =   131.4116

      5  C    Isotropic =    56.4629   Anisotropy =   149.4741

      6  N    Isotropic =   195.8920   Anisotropy =    52.9783

      7  C    Isotropic =    77.6379   Anisotropy =   123.5001

      8  C    Isotropic =    31.2873   Anisotropy =    76.1229

      9  O    Isotropic =   145.1239   Anisotropy =   162.3099

     10  O    Isotropic =   -28.4540   Anisotropy =   462.6738

     11  C    Isotropic =    73.8643   Anisotropy =   131.4114

     12  C    Isotropic =    56.4628   Anisotropy =   149.4740

     13  N    Isotropic =   195.8919   Anisotropy =    52.9782

     14  O    Isotropic =   145.1239   Anisotropy =   162.3096

     15  H    Isotropic =    24.3282   Anisotropy =     8.8916

     16  H    Isotropic =    26.4972   Anisotropy =    13.3289

     17  H    Isotropic =    28.3166   Anisotropy =    11.9387

     18  H    Isotropic =    25.1056   Anisotropy =    12.1247

     19  H    Isotropic =    24.3283   Anisotropy =     8.8916

     20  H    Isotropic =    26.4973   Anisotropy =    13.3288

     21  H    Isotropic =    28.3166   Anisotropy =    11.9387

     22  H    Isotropic =    25.1057   Anisotropy =    12.1246

  Exact polarizability: 218.295   2.675 197.488  -0.000   0.000  49.994
 Approx polarizability: 247.847   8.869 268.534  -0.000  -0.000  64.489

                      1                      2                      3
                      A                      A                      A
 Frequencies --     43.3042                48.4413                62.6933
 Red. masses --     11.8666                 8.7198                 6.7062
 Frc consts  --      0.0131                 0.0121                 0.0155
 IR Inten    --      6.0220                 0.0005                 0.6123

                      4                      5                      6
                      A                      A                      A
 Frequencies --    155.2954               174.1627               201.6940
 Red. masses --      4.5443                 7.7024                 4.4581
 Frc consts  --      0.0646                 0.1377                 0.1069
 IR Inten    --      8.8836                12.9251                 1.7692

                      7                      8                      9
                      A                      A                      A
 Frequencies --    267.6355               305.0100               353.1964
 Red. masses --      7.2863                 7.7438                 2.0866
 Frc consts  --      0.3075                 0.4245                 0.1534
 IR Inten    --      0.3624                 0.2969                40.0365

                     10                     11                     12
                      A                      A                      A
 Frequencies --    372.1152               376.7512               381.7860
 Red. masses --      2.8294                 2.4545                 1.4211
 Frc consts  --      0.2308                 0.2053                 0.1220
 IR Inten    --     31.3431                 0.0708                 0.4112

                     13                     14                     15
                      A                      A                      A
 Frequencies --    394.5909               434.0967               435.1883
 Red. masses --      1.7141                 5.8558                 2.9229
 Frc consts  --      0.1572                 0.6501                 0.3261
 IR Inten    --     33.7229                15.2182                31.5335

                     16                     17                     18
                      A                      A                      A
 Frequencies --    493.0833               505.7876               523.3877
 Red. masses --      7.1014                 1.7984                 3.6992
 Frc consts  --      1.0173                 0.2711                 0.5970
 IR Inten    --      3.6953               567.9677               297.6057

                     19                     20                     21
                      A                      A                      A
 Frequencies --    543.9307               564.9957               576.9836
 Red. masses --      1.4292                 1.3449                 1.2319
 Frc consts  --      0.2491                 0.2529                 0.2416
 IR Inten    --     45.5959               569.3559                 0.8949

                     22                     23                     24
                      A                      A                      A
 Frequencies --    623.4775               645.7080               660.4154
 Red. masses --      4.1745                 2.7315                 3.5066
 Frc consts  --      0.9561                 0.6710                 0.9011
 IR Inten    --     14.8063                50.3390                 0.3754

                     25                     26                     27
                      A                      A                      A
 Frequencies --    690.7870               706.9893               751.8185
 Red. masses --      4.2686                 3.5318                 5.7649
 Frc consts  --      1.2001                 1.0401                 1.9198
 IR Inten    --     24.4754               196.6185                 0.0027

                     28                     29                     30
                      A                      A                      A
 Frequencies --    779.5919               782.0232               847.1153
 Red. masses --      6.2305                 9.3541                 3.7377
 Frc consts  --      2.2311                 3.3705                 1.5803
 IR Inten    --      0.3913                87.7874                31.0576

                     31                     32                     33
                      A                      A                      A
 Frequencies --    895.0855               911.8075              1035.3646
 Red. masses --      1.4594                 1.4622                 8.1711
 Frc consts  --      0.6889                 0.7163                 5.1608
 IR Inten    --      0.1614                27.2345                 0.0046

                     34                     35                     36
                      A                      A                      A
 Frequencies --   1095.9247              1133.0998              1150.6404
 Red. masses --      1.8139                 3.0184                 1.2430
 Frc consts  --      1.2836                 2.2833                 0.9696
 IR Inten    --    242.7712               283.7640                 0.0160

                     37                     38                     39
                      A                      A                      A
 Frequencies --   1173.6614              1183.1112              1265.4846
 Red. masses --      1.8717                 2.0936                 2.3203
 Frc consts  --      1.5190                 1.7266                 2.1893
 IR Inten    --    728.9305                 1.7328               278.0705

                     40                     41                     42
                      A                      A                      A
 Frequencies --   1309.7053              1336.7477              1340.4029
 Red. masses --      1.4682                 2.4544                 3.9963
 Frc consts  --      1.4839                 2.5840                 4.2304
 IR Inten    --      0.0001               240.2172                 0.1545

                     43                     44                     45
                      A                      A                      A
 Frequencies --   1373.9058              1382.1464              1483.3782
 Red. masses --      3.0885                 5.0390                 5.6210
 Frc consts  --      3.4349                 5.6715                 7.2873
 IR Inten    --      0.7997               156.2592               737.4797

                     46                     47                     48
                      A                      A                      A
 Frequencies --   1530.4849              1591.1600              1646.0777
 Red. masses --      2.9030                 5.5077                 1.2174
 Frc consts  --      4.0064                 8.2157                 1.9435
 IR Inten    --    340.2464                 1.2937                19.8500

                     49                     50                     51
                      A                      A                      A
 Frequencies --   1646.7390              1686.0774              1766.5285
 Red. masses --      1.1649                 6.2440                 9.9242
 Frc consts  --      1.8613                10.4585                18.2467
 IR Inten    --    377.1761                 0.6988              1286.0405

                     52                     53                     54
                      A                      A                      A
 Frequencies --   1775.2472              3206.2836              3208.0344
 Red. masses --      9.9929                 1.0896                 1.0903
 Frc consts  --     18.5549                 6.5997                 6.6111
 IR Inten    --      0.9486                17.1803                 0.0004

                     55                     56                     57
                      A                      A                      A
 Frequencies --   3577.5561              3578.7960              3692.6779
 Red. masses --      1.0476                 1.0481                 1.0998
 Frc consts  --      7.8997                 7.9093                 8.8356
 IR Inten    --    128.5107                15.0375               181.3914

                     58                     59                     60
                      A                      A                      A
 Frequencies --   3692.8352              3748.0646              3748.2624
 Red. masses --      1.0998                 1.0647                 1.0647
 Frc consts  --      8.8365                 8.8120                 8.8134
 IR Inten    --      0.7434               296.8283                 0.3404

 - Thermochemistry -
 -------------------
 Temperature   298.150 Kelvin.  Pressure   1.00000 Atm.
 Atom     1 has atomic number  8 and mass  15.99491

 Molecular mass:   196.04841 amu.
 Principal axes and moments of inertia in atomic units:
                           1         2         3
     Eigenvalues --  1302.001804209.712195505.27723
           X            0.99980  -0.01998   0.00000
           Y            0.01998   0.99980   0.00000
           Z           -0.00000  -0.00000   1.00000
 This molecule is an asymmetric top.
 Rotational symmetry number  1.
 Warning -- assumption of classical behavior for rotation
           may cause significant error
 Rotational temperatures (Kelvin)      0.06652     0.02057     0.01573
 Rotational constants (GHZ):           1.38613     0.42871     0.32782
 Zero-point vibrational energy     429862.2 (Joules/Mol)
                                  102.73953 (Kcal/Mol)
 Warning -- explicit consideration of  21 degrees of freedom as
           vibrations may cause significant error
 Vibrational temperatures:     62.31    69.70    90.20   223.44   250.58
          (Kelvin)            290.19   385.07   438.84   508.17   535.39
                              542.06   549.30   567.73   624.57   626.14
                              709.44   727.72   753.04   782.59   812.90
                              830.15   897.05   929.03   950.19   993.89
                             1017.20  1081.70  1121.66  1125.16  1218.81
                             1287.83  1311.89  1489.66  1576.79  1630.28
                             1655.51  1688.64  1702.23  1820.75  1884.37
                             1923.28  1928.54  1976.74  1988.60  2134.25
                             2202.03  2289.32  2368.34  2369.29  2425.89
                             2541.64  2554.18  4613.13  4615.65  5147.31
                             5149.09  5312.94  5313.17  5392.63  5392.91

 Zero-point correction=                           0.163726 (Hartree/Particle)
 Thermal correction to Energy=                    0.176446
 Thermal correction to Enthalpy=                  0.177390
 Thermal correction to Gibbs Free Energy=         0.124234
 Sum of electronic and zero-point Energies=           -719.979570
 Sum of electronic and thermal Energies=              -719.966851
 Sum of electronic and thermal Enthalpies=            -719.965906
 Sum of electronic and thermal Free Energies=         -720.019062

                     E (Thermal)             CV                S
                      KCal/Mol        Cal/Mol-Kelvin    Cal/Mol-Kelvin
 Total                  110.721             49.230            111.876
 Electronic               0.000              0.000              0.000
 Translational            0.889              2.981             41.725
 Rotational               0.889              2.981             31.779
 Vibrational            108.944             43.268             38.373
 Vibration     1          0.595              1.980              5.102
 Vibration     2          0.595              1.978              4.880
 Vibration     3          0.597              1.972              4.371
 Vibration     4          0.620              1.897              2.606
 Vibration     5          0.627              1.874              2.390
 Vibration     6          0.639              1.837              2.118
 Vibration     7          0.673              1.733              1.611
 Vibration     8          0.696              1.664              1.389
 Vibration     9          0.729              1.569              1.152
 Vibration    10          0.744              1.529              1.071
 Vibration    11          0.747              1.520              1.052
 Vibration    12          0.751              1.509              1.032
 Vibration    13          0.762              1.482              0.983
 Vibration    14          0.795              1.396              0.845
 Vibration    15          0.796              1.394              0.842
 Vibration    16          0.849              1.265              0.676
 Vibration    17          0.861              1.237              0.644
 Vibration    18          0.878              1.198              0.602
 Vibration    19          0.899              1.153              0.557
 Vibration    20          0.921              1.107              0.514
 Vibration    21          0.933              1.081              0.491

 Optimization completed.
    -- Stationary point found.
 Normal termination of Gaussian 16 at Fri Jul 19 10:13:40 2024.
 Gaussian 16:  ES64L-G16RevA.03 25-Dec-2016

 ----------------------------------------------------------------------
 # TD(NStates=10, Root=1) B3LYP/6-31G** SCRF=(Solvent=water) volume pop
 =NPA density=current Geom=AllCheck Guess=Read
 ----------------------------------------------------------------------

 Structure from the checkpoint file:  "WIOZZYWDYUOMAY-UHFFFAOYSA-N_conf_3_2.chk"
 ----------------------------------
 WIOZZYWDYUOMAY-UHFFFAOYSA-N_conf_3
 ----------------------------------
 Charge =  0 Multiplicity = 1

                         Standard orientation:
 ---------------------------------------------------------------------
 Center     Atomic      Atomic             Coordinates (Angstroms)
 Number     Number       Type             X           Y           Z
 ---------------------------------------------------------------------
      1          8           0       -3.289330   -1.639931   -0.019274
      2          6           0       -2.843974   -0.504744    0.014184
      3          6           0       -1.398068   -0.162914   -0.018902
      4          6           0       -0.533255   -1.264093   -0.024127
      5          6           0        0.863214   -1.157826   -0.030563
      6          7           0        1.625524   -2.314444   -0.110932
      7          6           0        1.398067    0.162915   -0.018902
      8          6           0        2.843974    0.504743    0.014183
      9          8           0        3.672104   -0.565806    0.096670
     10          8           0        3.289333    1.639928   -0.019291
     11          6           0        0.533255    1.264094   -0.024123
     12          6           0       -0.863214    1.157827   -0.030559
     13          7           0       -1.625523    2.314446   -0.110921
     14          8           0       -3.672107    0.565804    0.096651
     15          1           0       -0.986591   -2.249588   -0.020442
     16          1           0        2.581355   -2.241325    0.205005
     17          1           0        1.156520   -3.152229    0.204897
     18          1           0        4.581313   -0.221057    0.124419
     19          1           0        0.986590    2.249589   -0.020435
     20          1           0       -2.581355    2.241327    0.205013
     21          1           0       -1.156518    3.152229    0.204912
     22          1           0       -4.581316    0.221052    0.124403
 ---------------------------------------------------------------------

 SCF Done:  E(RB3LYP) =  -720.143296331     A.U. after    3 cycles

 Excitation energies and oscillator strengths:

 Excited State   1:      Singlet-A      2.7253 eV  454.94 nm  f=0.1668  <S**2>=0.000
      51 -> 52         0.70540
 This state for optimization and/or second-order correction.
 Total Energy, E(TD-HF/TD-DFT) =  -720.043144368
 Copying the excited state density for this state as the 1-particle RhoCI density.

 Excited State   2:      Singlet-A      4.6703 eV  265.47 nm  f=0.0101  <S**2>=0.000
      47 -> 53        -0.15036
      48 -> 52         0.67140
      50 -> 52         0.15152

 Excited State   3:      Singlet-A      4.7209 eV  262.63 nm  f=0.0002  <S**2>=0.000
      51 -> 53         0.70261

 Excited State   4:      Singlet-A      4.7914 eV  258.76 nm  f=0.0006  <S**2>=0.000
      47 -> 52        -0.33101
      49 -> 52         0.61468

 Excited State   5:      Singlet-A      4.8319 eV  256.59 nm  f=0.0000  <S**2>=0.000
      47 -> 52         0.59657
      48 -> 53        -0.15013
      49 -> 52         0.33895

 Excited State   6:      Singlet-A      4.8373 eV  256.31 nm  f=0.2282  <S**2>=0.000
      48 -> 52        -0.14593
      50 -> 52         0.61869
      51 -> 54        -0.29874

 Excited State   7:      Singlet-A      5.1082 eV  242.72 nm  f=0.7836  <S**2>=0.000
      50 -> 52         0.29657
      51 -> 54         0.63329

 Excited State   8:      Singlet-A      6.4508 eV  192.20 nm  f=0.0003  <S**2>=0.000
      46 -> 52         0.68195
      50 -> 53        -0.16401

 Excited State   9:      Singlet-A      6.4667 eV  191.73 nm  f=0.1738  <S**2>=0.000
      45 -> 52         0.63668
      49 -> 53        -0.10014
      50 -> 54        -0.16643
      51 -> 55        -0.19685
      51 -> 57         0.10280

 Excited State  10:      Singlet-A      6.5292 eV  189.89 nm  f=0.0322  <S**2>=0.000
      44 -> 52        -0.19288
      45 -> 52         0.27529
      50 -> 54         0.34153
      51 -> 55         0.47791
      51 -> 57        -0.18037

 The electronic state is 1-A.
 Alpha  occ. eigenvalues --  -19.20492 -19.20492 -19.14344 -19.14344 -14.33795
 Alpha  occ. eigenvalues --  -14.33795 -10.33036 -10.33036 -10.24144 -10.24143
 Alpha  occ. eigenvalues --  -10.21368 -10.21368 -10.19620 -10.19619  -1.11224
 Alpha  occ. eigenvalues --   -1.11220  -1.01838  -1.01838  -0.92727  -0.91547
 Alpha  occ. eigenvalues --   -0.83635  -0.78405  -0.72504  -0.69706  -0.63412
 Alpha  occ. eigenvalues --   -0.61758  -0.59250  -0.54631  -0.53874  -0.51476
 Alpha  occ. eigenvalues --   -0.50811  -0.48662  -0.47944  -0.47184  -0.45828
 Alpha  occ. eigenvalues --   -0.45330  -0.43602  -0.43498  -0.42329  -0.39965
 Alpha  occ. eigenvalues --   -0.39680  -0.38342  -0.35887  -0.35076  -0.32905
 Alpha  occ. eigenvalues --   -0.32847  -0.28968  -0.28411  -0.27284  -0.26624
 Alpha  occ. eigenvalues --   -0.18928
 Alpha virt. eigenvalues --   -0.07021   0.00992   0.01209   0.08035   0.08189
 Alpha virt. eigenvalues --    0.08840   0.10218   0.11966   0.13443   0.15495
 Alpha virt. eigenvalues --    0.17486   0.18497   0.19648   0.22591   0.23059

 Mulliken charges:
               1
     1  O   -0.557078
     2  C    0.512032
     3  C    0.043147
     4  C   -0.170964
     5  C    0.244750
     6  N   -0.610584
     7  C    0.043147
     8  C    0.512032
     9  O   -0.537902
    10  O   -0.557078
    11  C   -0.170964
    12  C    0.244750
    13  N   -0.610584
    14  O   -0.537902
    15  H    0.115099
    16  H    0.315194
    17  H    0.308240
    18  H    0.338066
    19  H    0.115099
    20  H    0.315194
    21  H    0.308240
    22  H    0.338065
 Sum of Mulliken charges =  -0.00000

 Dipole moment (field-independent basis, Debye):
    X=             -0.0000    Y=              0.0000    Z=              2.1487  Tot=              2.1487
 Quadrupole moment (field-independent basis, Debye-Ang):
   XX=            -72.6570   YY=            -68.0400   ZZ=            -81.1704
   XY=            -27.2871   XZ=              0.0001   YZ=              0.0002

 Summary of Natural Population Analysis:

                                       Natural Population
                Natural  -----------------------------------------------
    Atom  No    Charge         Core      Valence    Rydberg      Total
 -----------------------------------------------------------------------
      O    1   -0.68406      1.99979     6.66568    0.01859     8.68406
      C    2    0.74894      1.99938     3.20716    0.04452     5.25106
      C    3   -0.21545      1.99886     4.19979    0.01680     6.21545
      C    4   -0.24203      1.99906     4.22717    0.01580     6.24203
      C    5    0.20539      1.99894     3.77750    0.01817     5.79461
      N    6   -0.72090      1.99946     5.71120    0.01024     7.72090
      C    7   -0.21545      1.99886     4.19979    0.01680     6.21545
      C    8    0.74894      1.99938     3.20716    0.04452     5.25106
      O    9   -0.75227      1.99977     6.74281    0.00969     8.75227
      O   10   -0.68406      1.99979     6.66568    0.01859     8.68406
      C   11   -0.24203      1.99906     4.22717    0.01580     6.24203
      C   12    0.20539      1.99894     3.77750    0.01817     5.79461
      N   13   -0.72090      1.99946     5.71120    0.01024     7.72090
      O   14   -0.75227      1.99977     6.74281    0.00969     8.75227
      H   15    0.26141      0.00000     0.73589    0.00270     0.73859
      H   16    0.44607      0.00000     0.55109    0.00283     0.55393
      H   17    0.43161      0.00000     0.56615    0.00223     0.56839
      H   18    0.52128      0.00000     0.47309    0.00563     0.47872
      H   19    0.26141      0.00000     0.73589    0.00270     0.73859
      H   20    0.44607      0.00000     0.55109    0.00283     0.55393
      H   21    0.43161      0.00000     0.56615    0.00223     0.56839
      H   22    0.52128      0.00000     0.47309    0.00563     0.47872
 =======================================================================
   * Total *   -0.00000     27.99052    73.71507    0.29441   102.00000

 Normal termination of Gaussian 16 at Fri Jul 19 10:24:09 2024.
