 Gaussian 16, Revision A.03,

 -------------------------------------------------------
 # opt=CalcFc B3LYP/6-31G** SCRF=(Solvent=water) scf=xqc
 -------------------------------------------------------

 ----------------------------------
 PIICEJLVQHRZGT-UHFFFAOYSA-N_conf_0
 ----------------------------------
 Symbolic Z-matrix:
 Charge =  0 Multiplicity = 1

 SCF Done:  E(RB3LYP) =  -190.534852624     A.U. after   10 cycles
 SCF Done:  E(RB3LYP) =  -190.537352588     A.U. after    9 cycles
 SCF Done:  E(RB3LYP) =  -190.537755219     A.U. after    9 cycles
 SCF Done:  E(RB3LYP) =  -190.537790661     A.U. after    8 cycles
 SCF Done:  E(RB3LYP) =  -190.537795092     A.U. after    7 cycles
 SCF Done:  E(RB3LYP) =  -190.537795156     A.U. after    6 cycles
 Optimization completed.
    -- Stationary point found.
 Normal termination of Gaussian 16 at Tue Jul  9 18:01:40 2024.

 ----------------------------------------------------------------------
 # freq B3LYP/6-31G** SCRF=(Solvent=water) volume NMR pop=NPA density=c
 urrent Geom=AllCheck Guess=Read
 ----------------------------------------------------------------------

 Structure from the checkpoint file:  "PIICEJLVQHRZGT-UHFFFAOYSA-N_conf_0_1.chk"
 ----------------------------------
 PIICEJLVQHRZGT-UHFFFAOYSA-N_conf_0
 ----------------------------------
 Charge =  0 Multiplicity = 1

 SCF Done:  E(RB3LYP) =  -190.537795156     A.U. after    1 cycles

      1  N    Isotropic =   240.7613   Anisotropy =    43.8672

      2  C    Isotropic =   146.3738   Anisotropy =    26.2719

      3  C    Isotropic =   143.7234   Anisotropy =    18.8537

      4  N    Isotropic =   239.2323   Anisotropy =    39.3374

      5  H    Isotropic =    29.9138   Anisotropy =    11.9638

      6  H    Isotropic =    31.9447   Anisotropy =    14.4375

      7  H    Isotropic =    29.2988   Anisotropy =     7.4664

      8  H    Isotropic =    29.4149   Anisotropy =     7.8719

      9  H    Isotropic =    29.5260   Anisotropy =     7.2540

     10  H    Isotropic =    28.7607   Anisotropy =     8.1019

     11  H    Isotropic =    31.0844   Anisotropy =    15.1885

     12  H    Isotropic =    31.7897   Anisotropy =    13.8745

  Exact polarizability:  45.882  -0.898  45.213   2.111  -0.031  44.658
 Approx polarizability:  47.408  -0.970  48.682   2.162  -0.404  49.121

                      1                      2                      3
                      A                      A                      A
 Frequencies --    171.7981               249.8978               273.9505
 Red. masses --      2.3650                 1.1470                 1.3192
 Frc consts  --      0.0411                 0.0422                 0.0583
 IR Inten    --      5.0270                75.1266                33.8683

                      4                      5                      6
                      A                      A                      A
 Frequencies --    352.6166               513.1120               824.4135
 Red. masses --      1.4639                 2.0201                 1.4424
 Frc consts  --      0.1072                 0.3134                 0.5776
 IR Inten    --     39.5556                25.0526                92.7410

                      7                      8                      9
                      A                      A                      A
 Frequencies --    845.9835               920.6434               952.5916
 Red. masses --      2.1892                 1.4547                 1.3478
 Frc consts  --      0.9231                 0.7265                 0.7206
 IR Inten    --     20.9668               112.4966               155.7364

                     10                     11                     12
                      A                      A                      A
 Frequencies --   1000.0121              1072.5861              1107.3418
 Red. masses --      1.9389                 1.6395                 1.4505
 Frc consts  --      1.1424                 1.1113                 1.0479
 IR Inten    --     96.7929                17.7226                 3.6572

                     13                     14                     15
                      A                      A                      A
 Frequencies --   1150.2797              1278.1194              1326.7379
 Red. masses --      1.8989                 1.3106                 1.2896
 Frc consts  --      1.4803                 1.2614                 1.3374
 IR Inten    --     39.7745                 2.3512                 3.5007

                     16                     17                     18
                      A                      A                      A
 Frequencies --   1392.8548              1400.1611              1422.2500
 Red. masses --      1.2230                 1.2287                 1.4314
 Frc consts  --      1.3979                 1.4192                 1.7059
 IR Inten    --      9.8327                14.3250                 8.9934

                     19                     20                     21
                      A                      A                      A
 Frequencies --   1494.9561              1510.1896              1655.8807
 Red. masses --      1.0904                 1.0902                 1.0874
 Frc consts  --      1.4358                 1.4650                 1.7567
 IR Inten    --      1.4750                 2.9322                36.5291

                     22                     23                     24
                      A                      A                      A
 Frequencies --   1663.9936              2963.2947              3019.2873
 Red. masses --      1.0845                 1.0710                 1.0668
 Frc consts  --      1.7692                 5.5408                 5.7300
 IR Inten    --     32.6038               123.5589                58.9545

                     25                     26                     27
                      A                      A                      A
 Frequencies --   3055.1492              3077.8533              3460.2479
 Red. masses --      1.0902                 1.0991                 1.0502
 Frc consts  --      5.9956                 6.1346                 7.4085
 IR Inten    --     73.5427                78.2403                 4.2055

                     28                     29                     30
                      A                      A                      A
 Frequencies --   3483.9374              3535.4782              3564.9745
 Red. masses --      1.0513                 1.0906                 1.0914
 Frc consts  --      7.5182                 8.0318                 8.1724
 IR Inten    --      0.6029                 2.0237                 0.3200

 - Thermochemistry -
 -------------------
 Temperature   298.150 Kelvin.  Pressure   1.00000 Atm.
 Atom     1 has atomic number  7 and mass  14.00307

 Molecular mass:    60.06875 amu.
 Principal axes and moments of inertia in atomic units:
                           1         2         3
     Eigenvalues --   126.22433 352.87724 415.88962
           X            0.99994  -0.00260   0.01064
           Y            0.00248   0.99993   0.01132
           Z           -0.01067  -0.01130   0.99988
 This molecule is an asymmetric top.
 Rotational symmetry number  1.
 Rotational temperatures (Kelvin)      0.68619     0.24545     0.20826
 Rotational constants (GHZ):          14.29789     5.11436     4.33947
 Zero-point vibrational energy     291533.5 (Joules/Mol)
                                   69.67817 (Kcal/Mol)
 Warning -- explicit consideration of   5 degrees of freedom as
           vibrations may cause significant error
 Vibrational temperatures:    247.18   359.55   394.15   507.34   738.25
          (Kelvin)           1186.15  1217.18  1324.60  1370.57  1438.79
                             1543.21  1593.22  1655.00  1838.93  1908.88
                             2004.01  2014.52  2046.30  2150.91  2172.83
                             2382.44  2394.12  4263.52  4344.08  4395.68
                             4428.34  4978.52  5012.61  5086.76  5129.20

 Zero-point correction=                           0.111039 (Hartree/Particle)
 Thermal correction to Energy=                    0.116392
 Thermal correction to Enthalpy=                  0.117336
 Thermal correction to Gibbs Free Energy=         0.083531
 Sum of electronic and zero-point Energies=           -190.426756
 Sum of electronic and thermal Energies=              -190.421404
 Sum of electronic and thermal Enthalpies=            -190.420459
 Sum of electronic and thermal Free Energies=         -190.454264

                     E (Thermal)             CV                S
                      KCal/Mol        Cal/Mol-Kelvin    Cal/Mol-Kelvin
 Total                   73.037             18.244             71.148
 Electronic               0.000              0.000              0.000
 Translational            0.889              2.981             38.199
 Rotational               0.889              2.981             24.430
 Vibrational             71.259             12.282              8.519
 Vibration     1          0.626              1.877              2.416
 Vibration     2          0.663              1.763              1.731
 Vibration     3          0.676              1.721              1.571
 Vibration     4          0.729              1.570              1.154
 Vibration     5          0.868              1.221              0.626

 Optimization completed.
    -- Stationary point found.
 Normal termination of Gaussian 16 at Tue Jul  9 18:07:46 2024.
 Gaussian 16:  EM64L-G16RevA.03 25-Dec-2016

 ----------------------------------------------------------------------
 # TD(NStates=10, Root=1) B3LYP/6-31G** SCRF=(Solvent=water) volume pop
 =NPA density=current Geom=AllCheck Guess=Read
 ----------------------------------------------------------------------

 Structure from the checkpoint file:  "PIICEJLVQHRZGT-UHFFFAOYSA-N_conf_0_2.chk"
 ----------------------------------
 PIICEJLVQHRZGT-UHFFFAOYSA-N_conf_0
 ----------------------------------
 Charge =  0 Multiplicity = 1

                         Standard orientation:
 ---------------------------------------------------------------------
 Center     Atomic      Atomic             Coordinates (Angstroms)
 Number     Number       Type             X           Y           Z
 ---------------------------------------------------------------------
      1          7           0       -1.551970   -0.576572   -0.060496
      2          6           0       -0.727707    0.582868    0.306616
      3          6           0        0.680967    0.601876   -0.301414
      4          7           0        1.423843   -0.601897    0.103780
      5          1           0       -0.964767   -1.402139    0.061367
      6          1           0       -1.731675   -0.535653   -1.063772
      7          1           0       -1.257390    1.498694    0.019561
      8          1           0       -0.638715    0.605647    1.402122
      9          1           0        0.597709    0.593576   -1.395644
     10          1           0        1.180882    1.546312   -0.026158
     11          1           0        2.298143   -0.653219   -0.414127
     12          1           0        1.693136   -0.512399    1.082456
 ---------------------------------------------------------------------

 SCF Done:  E(RB3LYP) =  -190.537795156     A.U. after    1 cycles

 Excitation energies and oscillator strengths:

 Excited State   1:      Singlet-A      7.3530 eV  168.62 nm  f=0.0065  <S**2>=0.000
      16 -> 18        -0.22395
      16 -> 19         0.12120
      17 -> 18         0.65671
 This state for optimization and/or second-order correction.
 Total Energy, E(TD-HF/TD-DFT) =  -190.267575821
 Copying the excited state density for this state as the 1-particle RhoCI density.

 Excited State   2:      Singlet-A      7.6375 eV  162.34 nm  f=0.0398  <S**2>=0.000
      16 -> 18         0.62761
      17 -> 18         0.19919
      17 -> 19         0.24458

 Excited State   3:      Singlet-A      8.3690 eV  148.15 nm  f=0.0334  <S**2>=0.000
      16 -> 18        -0.21504
      17 -> 18        -0.12038
      17 -> 19         0.64918

 Excited State   4:      Singlet-A      8.6606 eV  143.16 nm  f=0.0286  <S**2>=0.000
      16 -> 19         0.65964
      17 -> 18        -0.10648
      17 -> 21        -0.17007

 Excited State   5:      Singlet-A      8.8823 eV  139.59 nm  f=0.0294  <S**2>=0.000
      16 -> 19         0.16805
      17 -> 21         0.66642

 Excited State   6:      Singlet-A      8.9262 eV  138.90 nm  f=0.0639  <S**2>=0.000
      16 -> 20        -0.19397
      16 -> 21         0.13171
      17 -> 20         0.65264

 Excited State   7:      Singlet-A      9.2008 eV  134.75 nm  f=0.0449  <S**2>=0.000
      16 -> 20        -0.40263
      16 -> 21         0.49812
      17 -> 20        -0.23732
      17 -> 23         0.11898

 Excited State   8:      Singlet-A      9.2505 eV  134.03 nm  f=0.0402  <S**2>=0.000
      16 -> 20         0.51286
      16 -> 21         0.44791
      17 -> 21        -0.10023
      17 -> 22        -0.12367

 Excited State   9:      Singlet-A      9.8754 eV  125.55 nm  f=0.0242  <S**2>=0.000
      16 -> 21         0.10957
      17 -> 22         0.48549
      17 -> 23        -0.48145

 Excited State  10:      Singlet-A      9.9767 eV  124.27 nm  f=0.0651  <S**2>=0.000
      16 -> 20         0.13328
      17 -> 22         0.47482
      17 -> 23         0.47566

 The electronic state is 1-A.
 Alpha  occ. eigenvalues --  -14.31188 -14.30483 -10.20063 -10.19965  -0.88814
 Alpha  occ. eigenvalues --   -0.85344  -0.69630  -0.59189  -0.49684  -0.46960
 Alpha  occ. eigenvalues --   -0.44296  -0.40851  -0.39848  -0.35493  -0.33918
 Alpha  occ. eigenvalues --   -0.24397  -0.23203
 Alpha virt. eigenvalues --    0.08233   0.11645   0.13741   0.13887   0.17333
 Alpha virt. eigenvalues --    0.17595   0.18505   0.20766   0.23816   0.24255
 Alpha virt. eigenvalues --    0.28029   0.54367   0.54630   0.56938   0.59264

 Mulliken charges:
               1
     1  N   -0.416589
     2  C   -0.050910
     3  C   -0.061477
     4  N   -0.239741
     5  H    0.169040
     6  H    0.151696
     7  H    0.073931
     8  H    0.088006
     9  H    0.054140
    10  H    0.128059
    11  H    0.039498
    12  H    0.064347
 Sum of Mulliken charges =   0.00000

 Dipole moment (field-independent basis, Debye):
    X=              0.6439    Y=              0.9113    Z=             -0.4467  Tot=              1.2019
 Quadrupole moment (field-independent basis, Debye-Ang):
   XX=            -32.3757   YY=            -27.1140   ZZ=            -28.5641
   XY=              0.7115   XZ=              1.2569   YZ=              0.2903

 Summary of Natural Population Analysis:

                                       Natural Population
                Natural  -----------------------------------------------
    Atom  No    Charge         Core      Valence    Rydberg      Total
 -----------------------------------------------------------------------
      N    1   -0.72075      1.99957     5.70492    0.01626     7.72075
      C    2   -0.31345      1.99935     4.29410    0.02000     6.31345
      C    3   -0.34134      1.99929     4.32423    0.01783     6.34134
      N    4   -0.58652      1.99946     5.56666    0.02040     7.58652
      H    5    0.32525      0.00000     0.64189    0.03287     0.67475
      H    6    0.30783      0.00000     0.64758    0.04460     0.69217
      H    7    0.20344      0.00000     0.77627    0.02029     0.79656
      H    8    0.21994      0.00000     0.75933    0.02073     0.78006
      H    9    0.18937      0.00000     0.77508    0.03555     0.81063
      H   10    0.25700      0.00000     0.71825    0.02475     0.74300
      H   11    0.21538      0.00000     0.71408    0.07055     0.78462
      H   12    0.24386      0.00000     0.68519    0.07096     0.75614
 =======================================================================
   * Total *   -0.00000      7.99767    25.60757    0.39476    34.00000

 Normal termination of Gaussian 16 at Tue Jul  9 18:17:20 2024.
