 Gaussian 16, Revision A.03,

 -------------------------------------------------------
 # opt=CalcFc B3LYP/6-31G** SCRF=(Solvent=water) scf=xqc
 -------------------------------------------------------

 ----------------------------------
 KIDHWZJUCRJVML-UHFFFAOYSA-N_conf_2
 ----------------------------------
 Symbolic Z-matrix:
 Charge =  0 Multiplicity = 1

 SCF Done:  E(RB3LYP) =  -269.166107048     A.U. after   10 cycles
 SCF Done:  E(RB3LYP) =  -269.169329186     A.U. after    9 cycles
 SCF Done:  E(RB3LYP) =  -269.169380069     A.U. after    8 cycles
 SCF Done:  E(RB3LYP) =  -269.169380776     A.U. after    7 cycles
 Optimization completed.
    -- Stationary point found.
 Normal termination of Gaussian 16 at Tue Jul  9 18:06:22 2024.

 ----------------------------------------------------------------------
 # freq B3LYP/6-31G** SCRF=(Solvent=water) volume NMR pop=NPA density=c
 urrent Geom=AllCheck Guess=Read
 ----------------------------------------------------------------------

 Structure from the checkpoint file:  "KIDHWZJUCRJVML-UHFFFAOYSA-N_conf_2_1.chk"
 ----------------------------------
 KIDHWZJUCRJVML-UHFFFAOYSA-N_conf_2
 ----------------------------------
 Charge =  0 Multiplicity = 1

 SCF Done:  E(RB3LYP) =  -269.169380776     A.U. after    1 cycles

      1  N    Isotropic =   230.4103   Anisotropy =    27.1795

      2  C    Isotropic =   147.6621   Anisotropy =    37.1973

      3  C    Isotropic =   155.1679   Anisotropy =    30.8216

      4  C    Isotropic =   155.1679   Anisotropy =    30.8216

      5  C    Isotropic =   147.6621   Anisotropy =    37.1973

      6  N    Isotropic =   230.4103   Anisotropy =    27.1795

      7  H    Isotropic =    31.4852   Anisotropy =    12.6275

      8  H    Isotropic =    31.5112   Anisotropy =    12.4930

      9  H    Isotropic =    29.4561   Anisotropy =     5.7740

     10  H    Isotropic =    29.0846   Anisotropy =     5.8607

     11  H    Isotropic =    30.4434   Anisotropy =     4.6750

     12  H    Isotropic =    30.4144   Anisotropy =     6.2779

     13  H    Isotropic =    30.4144   Anisotropy =     6.2779

     14  H    Isotropic =    30.4434   Anisotropy =     4.6750

     15  H    Isotropic =    29.4561   Anisotropy =     5.7740

     16  H    Isotropic =    29.0846   Anisotropy =     5.8607

     17  H    Isotropic =    31.4852   Anisotropy =    12.6275

     18  H    Isotropic =    31.5112   Anisotropy =    12.4930

  Exact polarizability:  80.900  -0.000  66.740  -2.692   0.000  70.291
 Approx polarizability:  80.735  -0.000  73.242  -2.044   0.000  77.900

                      1                      2                      3
                      A                      A                      A
 Frequencies --     79.0837                88.4582               116.5588
 Red. masses --      1.5967                 2.2205                 3.6173
 Frc consts  --      0.0059                 0.0102                 0.0290
 IR Inten    --      2.4035                 1.2723                 0.9760

                      4                      5                      6
                      A                      A                      A
 Frequencies --    253.1118               295.6070               297.1464
 Red. masses --      2.1818                 2.3058                 1.1736
 Frc consts  --      0.0824                 0.1187                 0.0611
 IR Inten    --      3.8810                23.3142                90.3255

                      7                      8                      9
                      A                      A                      A
 Frequencies --    301.5369               345.7841               540.6729
 Red. masses --      1.1281                 3.2674                 2.6286
 Frc consts  --      0.0604                 0.2302                 0.4527
 IR Inten    --     43.5936                 0.2424                 6.1068

                     10                     11                     12
                      A                      A                      A
 Frequencies --    741.7855               771.6221               869.9323
 Red. masses --      1.1933                 1.1651                 2.0115
 Frc consts  --      0.3869                 0.4087                 0.8969
 IR Inten    --      4.9179                 1.0582                19.7949

                     13                     14                     15
                      A                      A                      A
 Frequencies --    888.0549               933.1636               955.7500
 Red. masses --      1.7311                 1.3697                 1.5905
 Frc consts  --      0.8044                 0.7027                 0.8560
 IR Inten    --    140.4220               260.4761                86.7996

                     16                     17                     18
                      A                      A                      A
 Frequencies --   1028.6550              1044.9903              1061.0398
 Red. masses --      1.5200                 1.8452                 2.5555
 Frc consts  --      0.9476                 1.1872                 1.6951
 IR Inten    --      4.0474                51.9224                15.6354

                     19                     20                     21
                      A                      A                      A
 Frequencies --   1085.7185              1095.6503              1150.0913
 Red. masses --      1.6719                 2.3292                 1.7736
 Frc consts  --      1.1612                 1.6474                 1.3822
 IR Inten    --      5.4753                 3.5402                16.0975

                     22                     23                     24
                      A                      A                      A
 Frequencies --   1216.0842              1309.7933              1311.7345
 Red. masses --      1.5412                 1.2969                 1.3160
 Frc consts  --      1.3429                 1.3109                 1.3341
 IR Inten    --      4.3940                 1.0416                 3.8268

                     25                     26                     27
                      A                      A                      A
 Frequencies --   1346.6488              1355.4942              1392.6376
 Red. masses --      1.2233                 1.2012                 1.1740
 Frc consts  --      1.3070                 1.3004                 1.3415
 IR Inten    --     20.9976                 5.6237                 0.0055

                     28                     29                     30
                      A                      A                      A
 Frequencies --   1394.5878              1411.2634              1414.1166
 Red. masses --      1.2634                 1.3927                 1.3053
 Frc consts  --      1.4477                 1.6343                 1.5379
 IR Inten    --      0.9486                 6.7461                 1.3638

                     31                     32                     33
                      A                      A                      A
 Frequencies --   1482.6229              1489.7755              1508.9479
 Red. masses --      1.0802                 1.0863                 1.0962
 Frc consts  --      1.3990                 1.4206                 1.4706
 IR Inten    --      0.7345                 0.8380                 0.9655

                     34                     35                     36
                      A                      A                      A
 Frequencies --   1509.2013              1660.1987              1660.5580
 Red. masses --      1.0907                 1.0868                 1.0865
 Frc consts  --      1.4637                 1.7649                 1.7652
 IR Inten    --      1.8168                32.7143                30.9295

                     37                     38                     39
                      A                      A                      A
 Frequencies --   3009.0628              3013.2159              3028.8428
 Red. masses --      1.0590                 1.0637                 1.0616
 Frc consts  --      5.6492                 5.6900                 5.7380
 IR Inten    --     41.3130                21.2448               111.8642

                     40                     41                     42
                      A                      A                      A
 Frequencies --   3030.7347              3046.4962              3047.3571
 Red. masses --      1.0637                 1.0965                 1.1019
 Frc consts  --      5.7565                 5.9960                 6.0289
 IR Inten    --     51.7176                21.1933                31.2163

                     43                     44                     45
                      A                      A                      A
 Frequencies --   3075.4336              3081.3999              3468.3623
 Red. masses --      1.1059                 1.1031                 1.0502
 Frc consts  --      6.1629                 6.1713                 7.4432
 IR Inten    --    149.1285                94.4854                 2.6337

                     46                     47                     48
                      A                      A                      A
 Frequencies --   3468.4286              3545.2397              3545.2660
 Red. masses --      1.0502                 1.0914                 1.0914
 Frc consts  --      7.4434                 8.0819                 8.0821
 IR Inten    --      0.5790                 0.3409                 0.1385

 - Thermochemistry -
 -------------------
 Temperature   298.150 Kelvin.  Pressure   1.00000 Atm.
 Atom     1 has atomic number  7 and mass  14.00307

 Molecular mass:    88.10005 amu.
 Principal axes and moments of inertia in atomic units:
                           1         2         3
     Eigenvalues --   169.308181404.433921473.83469
           X            0.99998  -0.00000  -0.00665
           Y            0.00000   1.00000   0.00000
           Z            0.00665  -0.00000   0.99998
 This molecule is an asymmetric top.
 Rotational symmetry number  1.
 Rotational temperatures (Kelvin)      0.51158     0.06167     0.05877
 Rotational constants (GHZ):          10.65950     1.28503     1.22452
 Zero-point vibrational energy     441230.1 (Joules/Mol)
                                  105.45653 (Kcal/Mol)
 Warning -- explicit consideration of   9 degrees of freedom as
           vibrations may cause significant error
 Vibrational temperatures:    113.78   127.27   167.70   364.17   425.31
          (Kelvin)            427.53   433.84   497.51   777.91  1067.26
                             1110.19  1251.64  1277.71  1342.61  1375.11
                             1480.01  1503.51  1526.60  1562.11  1576.40
                             1654.72  1749.67  1884.50  1887.29  1937.53
                             1950.25  2003.69  2006.50  2030.49  2034.60
                             2133.16  2143.45  2171.04  2171.40  2388.66
                             2389.17  4329.37  4335.35  4357.83  4360.55
                             4383.23  4384.47  4424.86  4433.45  4990.20
                             4990.30  5100.81  5100.85

 Zero-point correction=                           0.168056 (Hartree/Particle)
 Thermal correction to Energy=                    0.176102
 Thermal correction to Enthalpy=                  0.177047
 Thermal correction to Gibbs Free Energy=         0.135754
 Sum of electronic and zero-point Energies=           -269.001325
 Sum of electronic and thermal Energies=              -268.993278
 Sum of electronic and thermal Enthalpies=            -268.992334
 Sum of electronic and thermal Free Energies=         -269.033626

                     E (Thermal)             CV                S
                      KCal/Mol        Cal/Mol-Kelvin    Cal/Mol-Kelvin
 Total                  110.506             28.090             86.907
 Electronic               0.000              0.000              0.000
 Translational            0.889              2.981             39.340
 Rotational               0.889              2.981             27.352
 Vibrational            108.729             22.129             20.215
 Vibration     1          0.600              1.963              3.913
 Vibration     2          0.601              1.957              3.694
 Vibration     3          0.608              1.936              3.157
 Vibration     4          0.664              1.758              1.709
 Vibration     5          0.690              1.682              1.442
 Vibration     6          0.691              1.679              1.433
 Vibration     7          0.694              1.671              1.408
 Vibration     8          0.724              1.584              1.185
 Vibration     9          0.896              1.160              0.564

 Optimization completed.
    -- Stationary point found.
 Normal termination of Gaussian 16 at Tue Jul  9 18:18:17 2024.
 Gaussian 16:  EM64L-G16RevA.03 25-Dec-2016

 ----------------------------------------------------------------------
 # TD(NStates=10, Root=1) B3LYP/6-31G** SCRF=(Solvent=water) volume pop
 =NPA density=current Geom=AllCheck Guess=Read
 ----------------------------------------------------------------------

 Structure from the checkpoint file:  "KIDHWZJUCRJVML-UHFFFAOYSA-N_conf_2_2.chk"
 ----------------------------------
 KIDHWZJUCRJVML-UHFFFAOYSA-N_conf_2
 ----------------------------------
 Charge =  0 Multiplicity = 1

                         Standard orientation:
 ---------------------------------------------------------------------
 Center     Atomic      Atomic             Coordinates (Angstroms)
 Number     Number       Type             X           Y           Z
 ---------------------------------------------------------------------
      1          7           0        3.002491   -0.392574   -0.043545
      2          6           0        1.580528   -0.409538    0.331982
      3          6           0        0.734232    0.745184   -0.228705
      4          6           0       -0.734232    0.745184    0.228705
      5          6           0       -1.580528   -0.409538   -0.331982
      6          7           0       -3.002491   -0.392574    0.043545
      7          1           0        3.072540   -0.408504   -1.060514
      8          1           0        3.402904    0.503735    0.232107
      9          1           0        1.521151   -0.399385    1.428483
     10          1           0        1.166693   -1.372739    0.011041
     11          1           0        0.777097    0.719574   -1.327341
     12          1           0        1.202894    1.691459    0.073811
     13          1           0       -1.202894    1.691459   -0.073811
     14          1           0       -0.777097    0.719574    1.327341
     15          1           0       -1.521151   -0.399385   -1.428483
     16          1           0       -1.166693   -1.372739   -0.011041
     17          1           0       -3.072540   -0.408504    1.060514
     18          1           0       -3.402904    0.503735   -0.232107
 ---------------------------------------------------------------------

 SCF Done:  E(RB3LYP) =  -269.169380776     A.U. after    1 cycles

 Excitation energies and oscillator strengths:

 Excited State   1:      Singlet-A      7.4417 eV  166.61 nm  f=0.0134  <S**2>=0.000
      24 -> 27         0.36009
      24 -> 28         0.13467
      25 -> 26         0.58990
 This state for optimization and/or second-order correction.
 Total Energy, E(TD-HF/TD-DFT) =  -268.895902321
 Copying the excited state density for this state as the 1-particle RhoCI density.

 Excited State   2:      Singlet-A      7.4649 eV  166.09 nm  f=0.0217  <S**2>=0.000
      24 -> 26         0.49270
      25 -> 27         0.48513
      25 -> 28         0.13292

 Excited State   3:      Singlet-A      8.0788 eV  153.47 nm  f=0.0049  <S**2>=0.000
      24 -> 26        -0.43123
      25 -> 27         0.50479
      25 -> 28        -0.23310

 Excited State   4:      Singlet-A      8.1477 eV  152.17 nm  f=0.0181  <S**2>=0.000
      24 -> 27         0.60299
      24 -> 28        -0.14012
      25 -> 26        -0.33504

 Excited State   5:      Singlet-A      8.5385 eV  145.21 nm  f=0.0100  <S**2>=0.000
      24 -> 26        -0.15251
      24 -> 30        -0.18859
      25 -> 28         0.48974
      25 -> 29         0.42592

 Excited State   6:      Singlet-A      8.6048 eV  144.09 nm  f=0.0429  <S**2>=0.000
      24 -> 28        -0.26170
      24 -> 29        -0.37135
      24 -> 31        -0.12507
      25 -> 30         0.51341

 Excited State   7:      Singlet-A      8.6457 eV  143.41 nm  f=0.0017  <S**2>=0.000
      24 -> 26         0.21463
      24 -> 30        -0.22071
      25 -> 28        -0.42500
      25 -> 29         0.45572

 Excited State   8:      Singlet-A      8.7163 eV  142.24 nm  f=0.0679  <S**2>=0.000
      24 -> 28         0.61630
      25 -> 26        -0.18414
      25 -> 30         0.25044

 Excited State   9:      Singlet-A      8.8961 eV  139.37 nm  f=0.0359  <S**2>=0.000
      24 -> 29         0.57660
      25 -> 30         0.37977

 Excited State  10:      Singlet-A      8.9271 eV  138.89 nm  f=0.0043  <S**2>=0.000
      24 -> 30         0.60591
      25 -> 29         0.30827
      25 -> 31        -0.18218

 The electronic state is 1-A.
 Alpha  occ. eigenvalues --  -14.30941 -14.30941 -10.20085 -10.20085 -10.17534
 Alpha  occ. eigenvalues --  -10.17514  -0.87618  -0.87190  -0.76671  -0.67681
 Alpha  occ. eigenvalues --   -0.61987  -0.57157  -0.49218  -0.48865  -0.44203
 Alpha  occ. eigenvalues --   -0.43471  -0.40773  -0.39602  -0.37846  -0.35748
 Alpha  occ. eigenvalues --   -0.35226  -0.32450  -0.32438  -0.23819  -0.23205
 Alpha virt. eigenvalues --    0.08625   0.08999   0.11574   0.12175   0.12509
 Alpha virt. eigenvalues --    0.16365   0.17017   0.17552   0.19372   0.20039
 Alpha virt. eigenvalues --    0.20163   0.21010   0.24216   0.25050   0.27425

 Mulliken charges:
               1
     1  N   -0.331565
     2  C   -0.082806
     3  C   -0.169429
     4  C   -0.169429
     5  C   -0.082806
     6  N   -0.331565
     7  H    0.095622
     8  H    0.104424
     9  H    0.107629
    10  H    0.104927
    11  H    0.085086
    12  H    0.086113
    13  H    0.086113
    14  H    0.085086
    15  H    0.107629
    16  H    0.104927
    17  H    0.095622
    18  H    0.104424
 Sum of Mulliken charges =  -0.00000

 Dipole moment (field-independent basis, Debye):
    X=             -0.0000    Y=              0.8295    Z=              0.0000  Tot=              0.8295
 Quadrupole moment (field-independent basis, Debye-Ang):
   XX=            -49.0388   YY=            -42.2955   ZZ=            -41.4499
   XY=             -0.0000   XZ=             -0.9279   YZ=             -0.0000

 Summary of Natural Population Analysis:

                                       Natural Population
                Natural  -----------------------------------------------
    Atom  No    Charge         Core      Valence    Rydberg      Total
 -----------------------------------------------------------------------
      N    1   -0.64259      1.99952     5.62275    0.02032     7.64259
      C    2   -0.32440      1.99936     4.30339    0.02165     6.32440
      C    3   -0.48354      1.99928     4.46822    0.01604     6.48354
      C    4   -0.48354      1.99928     4.46822    0.01604     6.48354
      C    5   -0.32440      1.99936     4.30339    0.02165     6.32440
      N    6   -0.64259      1.99952     5.62275    0.02032     7.64259
      H    7    0.26417      0.00000     0.67740    0.05843     0.73583
      H    8    0.27052      0.00000     0.67352    0.05596     0.72948
      H    9    0.23041      0.00000     0.76002    0.00957     0.76959
      H   10    0.22639      0.00000     0.76305    0.01055     0.77361
      H   11    0.22454      0.00000     0.76266    0.01280     0.77546
      H   12    0.23450      0.00000     0.75198    0.01351     0.76550
      H   13    0.23450      0.00000     0.75198    0.01351     0.76550
      H   14    0.22454      0.00000     0.76266    0.01280     0.77546
      H   15    0.23041      0.00000     0.76002    0.00957     0.76959
      H   16    0.22639      0.00000     0.76305    0.01055     0.77361
      H   17    0.26417      0.00000     0.67740    0.05843     0.73583
      H   18    0.27052      0.00000     0.67352    0.05596     0.72948
 =======================================================================
   * Total *    0.00000     11.99632    37.56601    0.43768    50.00000

 1\1\GINC-CN33\SP\RB3LYP TD-FC\6-31G(d,p)\C4H12N2\QDUEZ\09-Jul-2024\0\\
 # TD(NStates=10, Root=1) B3LYP/6-31G** SCRF=(Solvent=water) volume pop
 =NPA density=current Geom=AllCheck Guess=Read\\KIDHWZJUCRJVML-UHFFFAOY
 SA-N_conf_2\\0,1\N,0,-3.0111488219,0.0329534343,0.409388444\C,0,-1.585
 3606263,-0.322052644,0.4756149895\C,0,-0.7240544144,0.1770369553,-0.69
 61489749\C,0,0.7495288124,-0.2601262343,-0.6409065268\C,0,1.5669267274
 ,0.3821780592,0.4919109575\N,0,2.9933599982,0.0250679631,0.5242800563\
 H,0,-3.0936889551,1.0479426976,0.3607050472\H,0,-3.3911107809,-0.30299

 Normal termination of Gaussian 16 at Tue Jul  9 18:34:26 2024.
