 Gaussian 16, Revision A.03,

 -------------------------------------------------------
 # opt=CalcFc B3LYP/6-31G** SCRF=(Solvent=water) scf=xqc
 -------------------------------------------------------

 ----------------------------------
 KIDHWZJUCRJVML-UHFFFAOYSA-N_conf_1
 ----------------------------------
 Symbolic Z-matrix:
 Charge =  0 Multiplicity = 1

 SCF Done:  E(RB3LYP) =  -269.162759781     A.U. after   11 cycles
 SCF Done:  E(RB3LYP) =  -269.165337093     A.U. after    9 cycles
 SCF Done:  E(RB3LYP) =  -269.165534802     A.U. after    9 cycles
 SCF Done:  E(RB3LYP) =  -269.165571919     A.U. after    8 cycles
 SCF Done:  E(RB3LYP) =  -269.165573332     A.U. after    7 cycles
 SCF Done:  E(RB3LYP) =  -269.165573864     A.U. after    7 cycles
 Optimization completed.
    -- Stationary point found.
 Normal termination of Gaussian 16 at Tue Jul  9 18:10:43 2024.

 ----------------------------------------------------------------------
 # freq B3LYP/6-31G** SCRF=(Solvent=water) volume NMR pop=NPA density=c
 urrent Geom=AllCheck Guess=Read
 ----------------------------------------------------------------------

 Structure from the checkpoint file:  "KIDHWZJUCRJVML-UHFFFAOYSA-N_conf_1_1.chk"
 ----------------------------------
 KIDHWZJUCRJVML-UHFFFAOYSA-N_conf_1
 ----------------------------------
 Charge =  0 Multiplicity = 1

 SCF Done:  E(RB3LYP) =  -269.165573864     A.U. after    1 cycles

      1  N    Isotropic =   230.1035   Anisotropy =    34.4026

      2  C    Isotropic =   143.9646   Anisotropy =    22.3029

      3  C    Isotropic =   165.5845   Anisotropy =    19.8593

      4  C    Isotropic =   157.1384   Anisotropy =    15.6517

      5  C    Isotropic =   147.5808   Anisotropy =    21.9229

      6  N    Isotropic =   234.8133   Anisotropy =    32.8491

      7  H    Isotropic =    31.0881   Anisotropy =    15.4754

      8  H    Isotropic =    31.5545   Anisotropy =    10.5731

      9  H    Isotropic =    29.1391   Anisotropy =     6.5943

     10  H    Isotropic =    28.4933   Anisotropy =     8.6923

     11  H    Isotropic =    30.6140   Anisotropy =     9.1313

     12  H    Isotropic =    29.5522   Anisotropy =     4.9759

     13  H    Isotropic =    30.2477   Anisotropy =     8.0618

     14  H    Isotropic =    30.2474   Anisotropy =     6.9694

     15  H    Isotropic =    28.7364   Anisotropy =     8.4254

     16  H    Isotropic =    28.2580   Anisotropy =     6.4675

     17  H    Isotropic =    31.1559   Anisotropy =    15.0559

     18  H    Isotropic =    31.8885   Anisotropy =    13.3255

  Exact polarizability:  77.372  -0.852  73.760  -2.169   0.301  68.235
 Approx polarizability:  77.732  -0.453  78.785  -3.588   0.425  74.675

                      1                      2                      3
                      A                      A                      A
 Frequencies --     40.8655               110.5324               169.6107
 Red. masses --      3.0927                 2.1921                 1.9937
 Frc consts  --      0.0030                 0.0158                 0.0338
 IR Inten    --      1.8035                12.0087                22.0815

                      4                      5                      6
                      A                      A                      A
 Frequencies --    247.1291               256.4748               296.6436
 Red. masses --      1.3373                 1.3264                 1.7125
 Frc consts  --      0.0481                 0.0514                 0.0888
 IR Inten    --     50.9245                50.4513                29.4691

                      7                      8                      9
                      A                      A                      A
 Frequencies --    320.4436               449.0771               498.1836
 Red. masses --      1.9470                 1.9975                 1.8464
 Frc consts  --      0.1178                 0.2373                 0.2700
 IR Inten    --      8.3394                13.7573                 9.9308

                     10                     11                     12
                      A                      A                      A
 Frequencies --    778.6965               815.0990               842.7929
 Red. masses --      2.2735                 1.7918                 1.4461
 Frc consts  --      0.8123                 0.7014                 0.6052
 IR Inten    --     15.6347                10.8876                98.2500

                     13                     14                     15
                      A                      A                      A
 Frequencies --    883.7394               913.9777               948.4556
 Red. masses --      1.4422                 1.5379                 1.6817
 Frc consts  --      0.6636                 0.7569                 0.8913
 IR Inten    --    131.9796                66.9891                73.1090

                     16                     17                     18
                      A                      A                      A
 Frequencies --    997.0714              1036.1529              1060.4047
 Red. masses --      1.7560                 1.4740                 1.6548
 Frc consts  --      1.0285                 0.9324                 1.0963
 IR Inten    --      2.4736                19.3791                16.7527

                     19                     20                     21
                      A                      A                      A
 Frequencies --   1091.4283              1126.7698              1152.9684
 Red. masses --      2.0280                 1.9656                 1.3374
 Frc consts  --      1.4233                 1.4703                 1.0475
 IR Inten    --     13.5159                 8.0234                11.6098

                     22                     23                     24
                      A                      A                      A
 Frequencies --   1193.9336              1291.6865              1307.1958
 Red. masses --      1.4167                 1.2485                 1.2367
 Frc consts  --      1.1898                 1.2273                 1.2451
 IR Inten    --      2.8096                 0.8920                 9.4704

                     25                     26                     27
                      A                      A                      A
 Frequencies --   1331.7009              1340.6243              1381.4916
 Red. masses --      1.1908                 1.1934                 1.3131
 Frc consts  --      1.2442                 1.2638                 1.4765
 IR Inten    --      7.5378                 0.6130                 9.8077

                     28                     29                     30
                      A                      A                      A
 Frequencies --   1401.1738              1426.8895              1435.7623
 Red. masses --      1.5154                 1.4340                 1.4055
 Frc consts  --      1.7529                 1.7202                 1.7070
 IR Inten    --      5.0041                 7.6219                19.7287

                     31                     32                     33
                      A                      A                      A
 Frequencies --   1487.9768              1491.6932              1520.2066
 Red. masses --      1.0894                 1.0905                 1.0881
 Frc consts  --      1.4211                 1.4296                 1.4816
 IR Inten    --      4.3104                 8.2437                 2.4103

                     34                     35                     36
                      A                      A                      A
 Frequencies --   1524.1234              1653.4185              1654.0717
 Red. masses --      1.0858                 1.0871                 1.0879
 Frc consts  --      1.4860                 1.7510                 1.7537
 IR Inten    --      6.2608                34.5314                39.2205

                     37                     38                     39
                      A                      A                      A
 Frequencies --   2950.6860              2952.0112              3010.9638
 Red. masses --      1.0732                 1.0727                 1.0640
 Frc consts  --      5.5053                 5.5075                 5.6834
 IR Inten    --    265.2338                26.5547                64.6349

                     40                     41                     42
                      A                      A                      A
 Frequencies --   3032.9937              3038.6158              3051.5424
 Red. masses --      1.0673                 1.0853                 1.0976
 Frc consts  --      5.7845                 5.9038                 6.0221
 IR Inten    --     41.1334                47.0470                82.8583

                     43                     44                     45
                      A                      A                      A
 Frequencies --   3074.0520              3101.7954              3473.5831
 Red. masses --      1.1009                 1.0901                 1.0511
 Frc consts  --      6.1297                 6.1796                 7.4722
 IR Inten    --     87.6720                30.2393                 2.4471

                     46                     47                     48
                      A                      A                      A
 Frequencies --   3474.1273              3553.0628              3553.7358
 Red. masses --      1.0505                 1.0918                 1.0912
 Frc consts  --      7.4705                 8.1206                 8.1192
 IR Inten    --      1.5339                 0.2072                 0.1420

 - Thermochemistry -
 -------------------
 Temperature   298.150 Kelvin.  Pressure   1.00000 Atm.
 Atom     1 has atomic number  7 and mass  14.00307

 Molecular mass:    88.10005 amu.
 Principal axes and moments of inertia in atomic units:
                           1         2         3
     Eigenvalues --   337.12743 891.663241026.26565
           X            0.99995  -0.00223   0.00966
           Y            0.00218   0.99999   0.00464
           Z           -0.00967  -0.00462   0.99994
 This molecule is an asymmetric top.
 Rotational symmetry number  1.
 Rotational temperatures (Kelvin)      0.25692     0.09714     0.08440
 Rotational constants (GHZ):           5.35329     2.02402     1.75855
 Zero-point vibrational energy     441096.9 (Joules/Mol)
                                  105.42468 (Kcal/Mol)
 Warning -- explicit consideration of   9 degrees of freedom as
           vibrations may cause significant error
 Vibrational temperatures:     58.80   159.03   244.03   355.56   369.01
          (Kelvin)            426.80   461.05   646.12   716.78  1120.37
                             1172.75  1212.59  1271.50  1315.01  1364.62
                             1434.56  1490.79  1525.69  1570.32  1621.17
                             1658.86  1717.80  1858.45  1880.76  1916.02
                             1928.86  1987.66  2015.98  2052.98  2065.74
                             2140.87  2146.21  2187.24  2192.87  2378.90
                             2379.84  4245.38  4247.29  4332.11  4363.80
                             4371.89  4390.49  4422.88  4462.79  4997.71
                             4998.49  5112.06  5113.03

 Zero-point correction=                           0.168005 (Hartree/Particle)
 Thermal correction to Energy=                    0.175952
 Thermal correction to Enthalpy=                  0.176896
 Thermal correction to Gibbs Free Energy=         0.135652
 Sum of electronic and zero-point Energies=           -268.997569
 Sum of electronic and thermal Energies=              -268.989622
 Sum of electronic and thermal Enthalpies=            -268.988678
 Sum of electronic and thermal Free Energies=         -269.029922

                     E (Thermal)             CV                S
                      KCal/Mol        Cal/Mol-Kelvin    Cal/Mol-Kelvin
 Total                  110.411             27.927             86.805
 Electronic               0.000              0.000              0.000
 Translational            0.889              2.981             39.340
 Rotational               0.889              2.981             27.225
 Vibrational            108.634             21.965             20.240
 Vibration     1          0.594              1.981              5.217
 Vibration     2          0.606              1.941              3.260
 Vibration     3          0.625              1.880              2.440
 Vibration     4          0.661              1.768              1.751
 Vibration     5          0.666              1.752              1.686
 Vibration     6          0.690              1.680              1.436
 Vibration     7          0.706              1.634              1.308
 Vibration     8          0.808              1.363              0.799
 Vibration     9          0.854              1.254              0.663

 Optimization completed.
    -- Stationary point found.
 Normal termination of Gaussian 16 at Tue Jul  9 18:23:10 2024.
 Gaussian 16:  EM64L-G16RevA.03 25-Dec-2016

 ----------------------------------------------------------------------
 # TD(NStates=10, Root=1) B3LYP/6-31G** SCRF=(Solvent=water) volume pop
 =NPA density=current Geom=AllCheck Guess=Read
 ----------------------------------------------------------------------

 Structure from the checkpoint file:  "KIDHWZJUCRJVML-UHFFFAOYSA-N_conf_1_2.chk"
 ----------------------------------
 KIDHWZJUCRJVML-UHFFFAOYSA-N_conf_1
 ----------------------------------
 Charge =  0 Multiplicity = 1

                         Standard orientation:
 ---------------------------------------------------------------------
 Center     Atomic      Atomic             Coordinates (Angstroms)
 Number     Number       Type             X           Y           Z
 ---------------------------------------------------------------------
      1          7           0       -1.701870   -1.176831    0.175149
      2          6           0       -1.871554    0.261660   -0.091808
      3          6           0       -0.569411    0.942928   -0.529846
      4          6           0        0.561446    0.976972    0.514064
      5          6           0        1.410602   -0.297243    0.616097
      6          7           0        2.134570   -0.555457   -0.640881
      7          1           0       -2.607672   -1.578891    0.410784
      8          1           0       -1.419997   -1.638029   -0.688859
      9          1           0       -2.228202    0.730778    0.835021
     10          1           0       -2.639396    0.467657   -0.857778
     11          1           0       -0.827625    1.973132   -0.806350
     12          1           0       -0.195562    0.466636   -1.445232
     13          1           0        1.233274    1.815807    0.281453
     14          1           0        0.140575    1.196342    1.504689
     15          1           0        2.081495   -0.199523    1.487220
     16          1           0        0.750907   -1.148164    0.806927
     17          1           0        2.650201   -1.429158   -0.554059
     18          1           0        2.846602    0.163526   -0.764730
 ---------------------------------------------------------------------

 SCF Done:  E(RB3LYP) =  -269.165573864     A.U. after    1 cycles

 Excitation energies and oscillator strengths:

 Excited State   1:      Singlet-A      7.2245 eV  171.62 nm  f=0.0102  <S**2>=0.000
      24 -> 27        -0.23076
      25 -> 26         0.65818
 This state for optimization and/or second-order correction.
 Total Energy, E(TD-HF/TD-DFT) =  -268.900077420
 Copying the excited state density for this state as the 1-particle RhoCI density.

 Excited State   2:      Singlet-A      7.4022 eV  167.50 nm  f=0.0202  <S**2>=0.000
      24 -> 26         0.56781
      25 -> 27        -0.40207

 Excited State   3:      Singlet-A      8.0784 eV  153.48 nm  f=0.0015  <S**2>=0.000
      24 -> 26         0.40118
      24 -> 27        -0.16522
      25 -> 27         0.54508

 Excited State   4:      Singlet-A      8.2475 eV  150.33 nm  f=0.0032  <S**2>=0.000
      24 -> 27         0.60295
      25 -> 26         0.23047
      25 -> 27         0.16831
      25 -> 28         0.19618

 Excited State   5:      Singlet-A      8.5161 eV  145.59 nm  f=0.0077  <S**2>=0.000
      24 -> 27        -0.19690
      24 -> 28         0.15774
      25 -> 28         0.62675
      25 -> 31        -0.10582

 Excited State   6:      Singlet-A      8.7272 eV  142.07 nm  f=0.0538  <S**2>=0.000
      24 -> 28         0.50940
      25 -> 28        -0.14682
      25 -> 29        -0.35231
      25 -> 30         0.22570

 Excited State   7:      Singlet-A      8.8930 eV  139.42 nm  f=0.1787  <S**2>=0.000
      24 -> 28         0.30499
      25 -> 29         0.56726
      25 -> 30         0.24495

 Excited State   8:      Singlet-A      9.0544 eV  136.93 nm  f=0.0347  <S**2>=0.000
      24 -> 28        -0.20799
      24 -> 29         0.45923
      24 -> 32         0.11874
      25 -> 28         0.14147
      25 -> 30         0.37787
      25 -> 31         0.21728

 Excited State   9:      Singlet-A      9.1846 eV  134.99 nm  f=0.0148  <S**2>=0.000
      24 -> 28        -0.20494
      24 -> 29        -0.43694
      25 -> 30         0.46840
      25 -> 32         0.12088

 Excited State  10:      Singlet-A      9.3535 eV  132.55 nm  f=0.0130  <S**2>=0.000
      24 -> 28         0.10719
      24 -> 30         0.62434
      25 -> 29        -0.10553
      25 -> 31         0.11249
      25 -> 32         0.17323
      25 -> 33        -0.10780

 The electronic state is 1-A.
 Alpha  occ. eigenvalues --  -14.30775 -14.30555 -10.19970 -10.19272 -10.17201
 Alpha  occ. eigenvalues --  -10.17107  -0.87387  -0.86633  -0.76042  -0.68498
 Alpha  occ. eigenvalues --   -0.60751  -0.55908  -0.47937  -0.47534  -0.45704
 Alpha  occ. eigenvalues --   -0.43530  -0.41620  -0.40568  -0.36253  -0.35776
 Alpha  occ. eigenvalues --   -0.33213  -0.32071  -0.31395  -0.23688  -0.22641
 Alpha virt. eigenvalues --    0.08099   0.10149   0.12397   0.13732   0.14487
 Alpha virt. eigenvalues --    0.16230   0.17271   0.18178   0.18349   0.19532
 Alpha virt. eigenvalues --    0.19904   0.20694   0.22769   0.25010   0.25843

 Mulliken charges:
               1
     1  N   -0.279864
     2  C   -0.055058
     3  C   -0.149967
     4  C   -0.147226
     5  C   -0.058266
     6  N   -0.427536
     7  H    0.094052
     8  H    0.087650
     9  H    0.092693
    10  H    0.086138
    11  H    0.049863
    12  H    0.072697
    13  H    0.055125
    14  H    0.076769
    15  H    0.089853
    16  H    0.088664
    17  H    0.169287
    18  H    0.155128
 Sum of Mulliken charges =  -0.00000

 Dipole moment (field-independent basis, Debye):
    X=              0.1333    Y=             -0.0854    Z=              0.7116  Tot=              0.7290
 Quadrupole moment (field-independent basis, Debye-Ang):
   XX=            -36.9986   YY=            -42.0828   ZZ=            -42.9604
   XY=             -1.2121   XZ=              0.9842   YZ=              0.0167

 Summary of Natural Population Analysis:

                                       Natural Population
                Natural  -----------------------------------------------
    Atom  No    Charge         Core      Valence    Rydberg      Total
 -----------------------------------------------------------------------
      N    1   -0.59479      1.99945     5.57835    0.01700     7.59479
      C    2   -0.31653      1.99933     4.30017    0.01703     6.31653
      C    3   -0.47869      1.99932     4.46610    0.01328     6.47869
      C    4   -0.47720      1.99932     4.46478    0.01311     6.47720
      C    5   -0.29673      1.99931     4.28021    0.01721     6.29673
      N    6   -0.72656      1.99954     5.71147    0.01555     7.72656
      H    7    0.25798      0.00000     0.68125    0.06076     0.74202
      H    8    0.25855      0.00000     0.67492    0.06653     0.74145
      H    9    0.22262      0.00000     0.76021    0.01717     0.77738
      H   10    0.22603      0.00000     0.74822    0.02576     0.77397
      H   11    0.20137      0.00000     0.78394    0.01469     0.79863
      H   12    0.22164      0.00000     0.76278    0.01558     0.77836
      H   13    0.20864      0.00000     0.77300    0.01835     0.79136
      H   14    0.22605      0.00000     0.76516    0.00879     0.77395
      H   15    0.22484      0.00000     0.75762    0.01753     0.77516
      H   16    0.21748      0.00000     0.76714    0.01538     0.78252
      H   17    0.31699      0.00000     0.64463    0.03838     0.68301
      H   18    0.30830      0.00000     0.64810    0.04360     0.69170
 =======================================================================
   * Total *   -0.00000     11.99626    37.56804    0.43570    50.00000

 1\1\GINC-CN33\SP\RB3LYP TD-FC\6-31G(d,p)\C4H12N2\QDUEZ\09-Jul-2024\0\\
 # TD(NStates=10, Root=1) B3LYP/6-31G** SCRF=(Solvent=water) volume pop
 =NPA density=current Geom=AllCheck Guess=Read\\KIDHWZJUCRJVML-UHFFFAOY
 SA-N_conf_1\\0,1\N,0,-1.6921016182,1.0749536912,-0.6898652087\C,0,-1.8
 40277691,-0.3136399067,-0.2217112183\C,0,-0.5960584336,-0.8302914659,0
 .5107980057\C,0,0.6863117949,-0.9478885571,-0.3326715151\C,0,1.4856440
 737,0.3498514136,-0.5116688495\N,0,1.9896126473,0.8461313293,0.7808169
 825\H,0,-2.5654824971,1.3741215904,-1.1203969677\H,0,-1.5706540792,1.6

 Normal termination of Gaussian 16 at Tue Jul  9 18:41:41 2024.
