 Gaussian 16, Revision A.03,

 -------------------------------------------------------
 # opt=CalcFc B3LYP/6-31G** SCRF=(Solvent=water) scf=xqc
 -------------------------------------------------------

 ----------------------------------
 KIDHWZJUCRJVML-UHFFFAOYSA-N_conf_0
 ----------------------------------
 Symbolic Z-matrix:
 Charge =  0 Multiplicity = 1

 SCF Done:  E(RB3LYP) =  -269.167004566     A.U. after   11 cycles
 SCF Done:  E(RB3LYP) =  -269.169259014     A.U. after    9 cycles
 SCF Done:  E(RB3LYP) =  -269.169301659     A.U. after    9 cycles
 SCF Done:  E(RB3LYP) =  -269.169302365     A.U. after    7 cycles
 Optimization completed.
    -- Stationary point found.
 Normal termination of Gaussian 16 at Tue Jul  9 18:06:59 2024.

 ----------------------------------------------------------------------
 # freq B3LYP/6-31G** SCRF=(Solvent=water) volume NMR pop=NPA density=c
 urrent Geom=AllCheck Guess=Read
 ----------------------------------------------------------------------

 Structure from the checkpoint file:  "KIDHWZJUCRJVML-UHFFFAOYSA-N_conf_0_1.chk"
 ----------------------------------
 KIDHWZJUCRJVML-UHFFFAOYSA-N_conf_0
 ----------------------------------
 Charge =  0 Multiplicity = 1

 SCF Done:  E(RB3LYP) =  -269.169302365     A.U. after    1 cycles

      1  N    Isotropic =   237.1670   Anisotropy =    40.9578

      2  C    Isotropic =   147.2142   Anisotropy =    25.9630

      3  C    Isotropic =   157.6021   Anisotropy =    23.4220

      4  C    Isotropic =   160.4142   Anisotropy =    25.6767

      5  C    Isotropic =   146.1960   Anisotropy =    37.2616

      6  N    Isotropic =   232.7778   Anisotropy =    32.5890

      7  H    Isotropic =    31.8675   Anisotropy =    13.5409

      8  H    Isotropic =    30.8833   Anisotropy =    11.7300

      9  H    Isotropic =    29.3525   Anisotropy =     7.3928

     10  H    Isotropic =    29.0158   Anisotropy =     8.2188

     11  H    Isotropic =    30.6412   Anisotropy =     6.4011

     12  H    Isotropic =    30.3955   Anisotropy =     6.9162

     13  H    Isotropic =    30.7495   Anisotropy =     5.7567

     14  H    Isotropic =    30.0029   Anisotropy =     4.6616

     15  H    Isotropic =    28.8057   Anisotropy =     6.3205

     16  H    Isotropic =    29.3451   Anisotropy =     5.4952

     17  H    Isotropic =    31.0383   Anisotropy =    15.3567

     18  H    Isotropic =    31.5565   Anisotropy =    12.2516

  Exact polarizability:  77.824   1.670  69.894  -1.453  -0.562  70.560
 Approx polarizability:  76.946   1.447  76.344  -1.607  -0.704  78.154

                      1                      2                      3
                      A                      A                      A
 Frequencies --     82.0394                97.1461               149.3339
 Red. masses --      1.8291                 2.8486                 2.7550
 Frc consts  --      0.0073                 0.0158                 0.0362
 IR Inten    --      7.3218                 3.8664                 0.7039

                      4                      5                      6
                      A                      A                      A
 Frequencies --    184.9152               262.7266               301.9360
 Red. masses --      1.6974                 1.1123                 1.6826
 Frc consts  --      0.0342                 0.0452                 0.0904
 IR Inten    --      3.9521                81.9663                37.2094

                      7                      8                      9
                      A                      A                      A
 Frequencies --    326.7592               431.4325               489.0011
 Red. masses --      1.6943                 3.4343                 2.1327
 Frc consts  --      0.1066                 0.3766                 0.3005
 IR Inten    --     23.6883                15.2906                11.3298

                     10                     11                     12
                      A                      A                      A
 Frequencies --    754.3469               817.8225               855.5853
 Red. masses --      1.1248                 1.2748                 1.7885
 Frc consts  --      0.3771                 0.5024                 0.7714
 IR Inten    --     11.1657                27.9388                34.3081

                     13                     14                     15
                      A                      A                      A
 Frequencies --    890.1761               909.8320               976.5988
 Red. masses --      1.6624                 1.3594                 1.7189
 Frc consts  --      0.7761                 0.6630                 0.9659
 IR Inten    --     76.4727               255.1591                70.0848

                     16                     17                     18
                      A                      A                      A
 Frequencies --    995.6222              1028.7067              1081.2535
 Red. masses --      1.6900                 1.9508                 2.5698
 Frc consts  --      0.9870                 1.2163                 1.7702
 IR Inten    --     27.0945                 9.1321                12.6438

                     19                     20                     21
                      A                      A                      A
 Frequencies --   1085.3391              1128.9223              1152.6852
 Red. masses --      2.3334                 1.2449                 1.9915
 Frc consts  --      1.6194                 0.9348                 1.5590
 IR Inten    --     16.0092                 4.9437                24.1644

                     22                     23                     24
                      A                      A                      A
 Frequencies --   1235.5261              1258.7153              1318.2587
 Red. masses --      1.4253                 1.4263                 1.2328
 Frc consts  --      1.2819                 1.3314                 1.2622
 IR Inten    --      8.5228                 4.2164                 5.1791

                     25                     26                     27
                      A                      A                      A
 Frequencies --   1330.1179              1342.9548              1390.6149
 Red. masses --      1.1278                 1.2234                 1.3602
 Frc consts  --      1.1756                 1.3000                 1.5497
 IR Inten    --      0.4803                 2.9852                 9.2763

                     28                     29                     30
                      A                      A                      A
 Frequencies --   1396.3029              1406.7939              1437.1048
 Red. masses --      1.2266                 1.3267                 1.4914
 Frc consts  --      1.4090                 1.5469                 1.8147
 IR Inten    --     12.0449                 4.3436                22.6443

                     31                     32                     33
                      A                      A                      A
 Frequencies --   1485.0432              1497.1862              1503.2755
 Red. masses --      1.0874                 1.0897                 1.0909
 Frc consts  --      1.4129                 1.4392                 1.4525
 IR Inten    --      1.2650                 0.3553                 1.6775

                     34                     35                     36
                      A                      A                      A
 Frequencies --   1527.3155              1656.5157              1660.0288
 Red. masses --      1.0926                 1.0870                 1.0882
 Frc consts  --      1.5016                 1.7574                 1.7668
 IR Inten    --      1.8119                35.2841                30.3668

                     37                     38                     39
                      A                      A                      A
 Frequencies --   2955.1978              3008.1533              3012.6231
 Red. masses --      1.0722                 1.0619                 1.0636
 Frc consts  --      5.5169                 5.6613                 5.6876
 IR Inten    --    115.5378                 3.6945                88.3056

                     40                     41                     42
                      A                      A                      A
 Frequencies --   3026.9978              3044.8334              3048.4938
 Red. masses --      1.0647                 1.0884                 1.0933
 Frc consts  --      5.7475                 5.9452                 5.9861
 IR Inten    --     47.5195                62.8438                28.2273

                     43                     44                     45
                      A                      A                      A
 Frequencies --   3067.8900              3072.0310              3475.0556
 Red. masses --      1.1029                 1.1039                 1.0510
 Frc consts  --      6.1160                 6.1382                 7.4778
 IR Inten    --     83.3566               168.2082                 1.9434

                     46                     47                     48
                      A                      A                      A
 Frequencies --   3476.2472              3552.6141              3557.0694
 Red. masses --      1.0503                 1.0912                 1.0913
 Frc consts  --      7.4783                 8.1141                 8.1354
 IR Inten    --      1.3945                 0.1886                 0.0918

 - Thermochemistry -
 -------------------
 Temperature   298.150 Kelvin.  Pressure   1.00000 Atm.
 Atom     1 has atomic number  7 and mass  14.00307

 Molecular mass:    88.10005 amu.
 Principal axes and moments of inertia in atomic units:
                           1         2         3
     Eigenvalues --   195.800691349.209491444.80817
           X            0.99999  -0.00115  -0.00309
           Y            0.00112   0.99993  -0.01175
           Z            0.00310   0.01175   0.99993
 This molecule is an asymmetric top.
 Rotational symmetry number  1.
 Rotational temperatures (Kelvin)      0.44236     0.06420     0.05995
 Rotational constants (GHZ):           9.21724     1.33763     1.24912
 Zero-point vibrational energy     441093.9 (Joules/Mol)
                                  105.42397 (Kcal/Mol)
 Warning -- explicit consideration of   9 degrees of freedom as
           vibrations may cause significant error
 Vibrational temperatures:    118.04   139.77   214.86   266.05   378.00
          (Kelvin)            434.42   470.13   620.74   703.56  1085.34
                             1176.66  1231.00  1280.76  1309.05  1405.11
                             1432.48  1480.08  1555.68  1561.56  1624.27
                             1658.46  1777.65  1811.01  1896.68  1913.74
                             1932.21  2000.78  2008.97  2024.06  2067.67
                             2136.65  2154.12  2162.88  2197.47  2383.36
                             2388.41  4251.87  4328.06  4334.49  4355.17
                             4380.84  4386.10  4414.01  4419.97  4999.83
                             5001.54  5111.42  5117.83

 Zero-point correction=                           0.168004 (Hartree/Particle)
 Thermal correction to Energy=                    0.176017
 Thermal correction to Enthalpy=                  0.176961
 Thermal correction to Gibbs Free Energy=         0.135801
 Sum of electronic and zero-point Energies=           -269.001299
 Sum of electronic and thermal Energies=              -268.993285
 Sum of electronic and thermal Enthalpies=            -268.992341
 Sum of electronic and thermal Free Energies=         -269.033502

                     E (Thermal)             CV                S
                      KCal/Mol        Cal/Mol-Kelvin    Cal/Mol-Kelvin
 Total                  110.453             28.028             86.630
 Electronic               0.000              0.000              0.000
 Translational            0.889              2.981             39.340
 Rotational               0.889              2.981             27.437
 Vibrational            108.675             22.066             19.853
 Vibration     1          0.600              1.961              3.841
 Vibration     2          0.603              1.951              3.511
 Vibration     3          0.618              1.903              2.681
 Vibration     4          0.631              1.860              2.278
 Vibration     5          0.670              1.741              1.644
 Vibration     6          0.694              1.670              1.406
 Vibration     7          0.710              1.622              1.276
 Vibration     8          0.792              1.402              0.854
 Vibration     9          0.845              1.274              0.686

 Optimization completed.
    -- Stationary point found.
 Normal termination of Gaussian 16 at Tue Jul  9 18:18:37 2024.
 Gaussian 16:  EM64L-G16RevA.03 25-Dec-2016

 ----------------------------------------------------------------------
 # TD(NStates=10, Root=1) B3LYP/6-31G** SCRF=(Solvent=water) volume pop
 =NPA density=current Geom=AllCheck Guess=Read
 ----------------------------------------------------------------------

 Structure from the checkpoint file:  "KIDHWZJUCRJVML-UHFFFAOYSA-N_conf_0_2.chk"
 ----------------------------------
 KIDHWZJUCRJVML-UHFFFAOYSA-N_conf_0
 ----------------------------------
 Charge =  0 Multiplicity = 1

                         Standard orientation:
 ---------------------------------------------------------------------
 Center     Atomic      Atomic             Coordinates (Angstroms)
 Number     Number       Type             X           Y           Z
 ---------------------------------------------------------------------
      1          7           0        2.586572   -0.880180   -0.207347
      2          6           0        2.068139    0.377003    0.352230
      3          6           0        0.686691    0.838889   -0.144089
      4          6           0       -0.460037   -0.111472    0.218252
      5          6           0       -1.824593    0.375414   -0.272748
      6          7           0       -2.880590   -0.592915    0.065012
      7          1           0        2.582360   -0.816622   -1.224817
      8          1           0        1.946530   -1.640007    0.015890
      9          1           0        2.042946    0.269213    1.444596
     10          1           0        2.801961    1.163306    0.136711
     11          1           0        0.726268    0.967830   -1.235624
     12          1           0        0.481872    1.833836    0.275532
     13          1           0       -0.495215   -0.236880    1.310755
     14          1           0       -0.277052   -1.107863   -0.203102
     15          1           0       -2.010986    1.386557    0.129440
     16          1           0       -1.800344    0.477238   -1.365309
     17          1           0       -3.771617   -0.247992   -0.287891
     18          1           0       -2.989799   -0.615954    1.078286
 ---------------------------------------------------------------------

 SCF Done:  E(RB3LYP) =  -269.169302365     A.U. after    1 cycles

 Excitation energies and oscillator strengths:

 Excited State   1:      Singlet-A      7.4230 eV  167.03 nm  f=0.0261  <S**2>=0.000
      24 -> 26         0.33242
      25 -> 26         0.58125
      25 -> 27        -0.16591
 This state for optimization and/or second-order correction.
 Total Energy, E(TD-HF/TD-DFT) =  -268.896512611
 Copying the excited state density for this state as the 1-particle RhoCI density.

 Excited State   2:      Singlet-A      7.4856 eV  165.63 nm  f=0.0149  <S**2>=0.000
      24 -> 26         0.22417
      24 -> 27         0.55639
      25 -> 26        -0.13127
      25 -> 27        -0.34137

 Excited State   3:      Singlet-A      8.0104 eV  154.78 nm  f=0.0136  <S**2>=0.000
      24 -> 26         0.56584
      24 -> 27        -0.21253
      25 -> 26        -0.32189
      25 -> 27         0.13056

 Excited State   4:      Singlet-A      8.2701 eV  149.92 nm  f=0.0055  <S**2>=0.000
      24 -> 26         0.10392
      24 -> 27         0.34799
      25 -> 26         0.18156
      25 -> 27         0.56606

 Excited State   5:      Singlet-A      8.6125 eV  143.96 nm  f=0.0549  <S**2>=0.000
      24 -> 28         0.25254
      24 -> 29        -0.16683
      24 -> 30        -0.13447
      25 -> 28         0.47948
      25 -> 29        -0.29766
      25 -> 30        -0.22415

 Excited State   6:      Singlet-A      8.7384 eV  141.88 nm  f=0.0421  <S**2>=0.000
      24 -> 28        -0.13615
      24 -> 29        -0.28126
      24 -> 31         0.21239
      25 -> 28         0.31027
      25 -> 29         0.49694

 Excited State   7:      Singlet-A      8.7561 eV  141.60 nm  f=0.0432  <S**2>=0.000
      24 -> 28         0.31022
      24 -> 29         0.49231
      25 -> 28         0.21089
      25 -> 29         0.24154
      25 -> 31         0.20698

 Excited State   8:      Singlet-A      8.8256 eV  140.48 nm  f=0.0749  <S**2>=0.000
      24 -> 28         0.50845
      24 -> 29        -0.26164
      24 -> 30         0.18266
      25 -> 28        -0.27449
      25 -> 29         0.15134
      25 -> 30        -0.13144

 Excited State   9:      Singlet-A      9.1278 eV  135.83 nm  f=0.0473  <S**2>=0.000
      24 -> 29        -0.13388
      24 -> 30         0.26963
      25 -> 28         0.11175
      25 -> 29        -0.19119
      25 -> 30         0.56749

 Excited State  10:      Singlet-A      9.1858 eV  134.97 nm  f=0.0027  <S**2>=0.000
      24 -> 28        -0.17837
      24 -> 30         0.58689
      25 -> 28         0.11735
      25 -> 30        -0.27640

 The electronic state is 1-A.
 Alpha  occ. eigenvalues --  -14.30951 -14.30847 -10.20168 -10.20129 -10.17517
 Alpha  occ. eigenvalues --  -10.17495  -0.87599  -0.87114  -0.76665  -0.68587
 Alpha  occ. eigenvalues --   -0.60816  -0.57312  -0.48760  -0.47943  -0.45417
 Alpha  occ. eigenvalues --   -0.43953  -0.41416  -0.40074  -0.38554  -0.35108
 Alpha  occ. eigenvalues --   -0.33741  -0.32413  -0.32313  -0.23645  -0.23536
 Alpha virt. eigenvalues --    0.08415   0.09100   0.11944   0.12439   0.13400
 Alpha virt. eigenvalues --    0.15732   0.16491   0.18015   0.19148   0.19593
 Alpha virt. eigenvalues --    0.19972   0.21731   0.22574   0.24908   0.26562

 Mulliken charges:
               1
     1  N   -0.045465
     2  C   -0.106370
     3  C   -0.158934
     4  C   -0.116764
     5  C   -0.060556
     6  N   -0.644451
     7  H   -0.003595
     8  H   -0.025707
     9  H    0.106800
    10  H    0.117693
    11  H    0.067799
    12  H    0.118783
    13  H    0.072218
    14  H    0.000812
    15  H    0.080603
    16  H    0.096629
    17  H    0.251479
    18  H    0.249024
 Sum of Mulliken charges =  -0.00000

 Dipole moment (field-independent basis, Debye):
    X=              0.5110    Y=              2.9300    Z=              1.4205  Tot=              3.2960
 Quadrupole moment (field-independent basis, Debye-Ang):
   XX=            -34.2919   YY=            -44.7952   ZZ=            -41.0071
   XY=             -2.5026   XZ=             -0.2225   YZ=             -0.5879

 Summary of Natural Population Analysis:

                                       Natural Population
                Natural  -----------------------------------------------
    Atom  No    Charge         Core      Valence    Rydberg      Total
 -----------------------------------------------------------------------
      N    1   -0.38178      1.99935     5.35680    0.02563     7.38178
      C    2   -0.36232      1.99935     4.34358    0.01939     6.36232
      C    3   -0.45793      1.99926     4.44715    0.01152     6.45793
      C    4   -0.49371      1.99931     4.47681    0.01760     6.49371
      C    5   -0.26464      1.99934     4.25043    0.01486     6.26464
      N    6   -0.92695      1.99968     5.91249    0.01478     7.92695
      H    7    0.19580      0.00000     0.71939    0.08480     0.80420
      H    8    0.16978      0.00000     0.74685    0.08337     0.83022
      H    9    0.23300      0.00000     0.74799    0.01900     0.76700
      H   10    0.24691      0.00000     0.73770    0.01539     0.75309
      H   11    0.21114      0.00000     0.76522    0.02364     0.78886
      H   12    0.25146      0.00000     0.74208    0.00647     0.74854
      H   13    0.22049      0.00000     0.77012    0.00938     0.77951
      H   14    0.16378      0.00000     0.80207    0.03415     0.83622
      H   15    0.20161      0.00000     0.79544    0.00295     0.79839
      H   16    0.21996      0.00000     0.77657    0.00348     0.78004
      H   17    0.39026      0.00000     0.60712    0.00262     0.60974
      H   18    0.38289      0.00000     0.61416    0.00294     0.61711
 =======================================================================
   * Total *   -0.00023     11.99629    37.61195    0.39199    50.00023

 1\1\GINC-CN33\SP\RB3LYP TD-FC\6-31G(d,p)\C4H12N2\QDUEZ\09-Jul-2024\0\\
 # TD(NStates=10, Root=1) B3LYP/6-31G** SCRF=(Solvent=water) volume pop
 =NPA density=current Geom=AllCheck Guess=Read\\KIDHWZJUCRJVML-UHFFFAOY
 SA-N_conf_0\\0,1\N,0,-2.4048134405,0.0351743996,-1.3582099393\C,0,-2.0
 51651592,-0.6217809166,-0.0908923474\C,0,-0.5571977137,-0.8931902563,0
 .1561223402\C,0,0.3015519522,0.3722727645,0.2591391702\C,0,1.780084740
 1,0.0780613578,0.5190086001\N,0,2.5630544542,1.3236625326,0.5670539469
 \H,0,-2.0133961242,-0.502809599,-2.1306536318\H,0,-1.9489146279,0.9443

 Normal termination of Gaussian 16 at Tue Jul  9 18:35:41 2024.
