 Gaussian 16, Revision A.03,

 -------------------------------------------------------
 # opt=CalcFc B3LYP/6-31G** SCRF=(Solvent=water) scf=xqc
 -------------------------------------------------------

 ----------------------------------
 SSJXIUAHEKJCMH-OLQVQODUSA-N_conf_1
 ----------------------------------
 Symbolic Z-matrix:
 Charge =  0 Multiplicity = 1

 SCF Done:  E(RB3LYP) =  -346.589659497     A.U. after   11 cycles
 SCF Done:  E(RB3LYP) =  -346.592329076     A.U. after    9 cycles
 SCF Done:  E(RB3LYP) =  -346.592534042     A.U. after    9 cycles
 SCF Done:  E(RB3LYP) =  -346.592538466     A.U. after    7 cycles
 SCF Done:  E(RB3LYP) =  -346.592538601     A.U. after    6 cycles
 Optimization completed.
    -- Stationary point found.
 Normal termination of Gaussian 16 at Tue Jul  9 18:09:30 2024.

 ----------------------------------------------------------------------
 # freq B3LYP/6-31G** SCRF=(Solvent=water) volume NMR pop=NPA density=c
 urrent Geom=AllCheck Guess=Read
 ----------------------------------------------------------------------

 Structure from the checkpoint file:  "SSJXIUAHEKJCMH-OLQVQODUSA-N_conf_1_1.chk"
 ----------------------------------
 SSJXIUAHEKJCMH-OLQVQODUSA-N_conf_1
 ----------------------------------
 Charge =  0 Multiplicity = 1

 SCF Done:  E(RB3LYP) =  -346.592538601     A.U. after    1 cycles

      1  N    Isotropic =   226.4526   Anisotropy =    39.5956

      2  C    Isotropic =   139.0578   Anisotropy =    24.4362

      3  C    Isotropic =   136.8146   Anisotropy =    17.6695

      4  N    Isotropic =   221.2293   Anisotropy =    39.4695

      5  C    Isotropic =   155.2272   Anisotropy =    32.2264

      6  C    Isotropic =   169.1742   Anisotropy =    10.2093

      7  C    Isotropic =   169.4407   Anisotropy =     7.7149

      8  C    Isotropic =   158.8517   Anisotropy =    24.5722

      9  H    Isotropic =    29.5828   Anisotropy =    13.5160

     10  H    Isotropic =    32.4209   Anisotropy =    12.5217

     11  H    Isotropic =    29.3304   Anisotropy =     4.5508

     12  H    Isotropic =    29.4843   Anisotropy =     3.5758

     13  H    Isotropic =    32.1635   Anisotropy =    12.3942

     14  H    Isotropic =    30.7878   Anisotropy =    14.1665

     15  H    Isotropic =    29.7906   Anisotropy =     7.5203

     16  H    Isotropic =    30.7599   Anisotropy =     6.6147

     17  H    Isotropic =    30.3227   Anisotropy =    10.4320

     18  H    Isotropic =    30.1603   Anisotropy =     8.1231

     19  H    Isotropic =    30.3400   Anisotropy =    10.5048

     20  H    Isotropic =    30.2360   Anisotropy =     8.0477

     21  H    Isotropic =    30.7422   Anisotropy =     7.0539

     22  H    Isotropic =    29.6805   Anisotropy =     8.4685

  Exact polarizability: 101.125   1.331  97.856  -0.036  -1.961  91.384
 Approx polarizability: 103.791   0.989 101.950  -0.528  -1.743 104.425

                      1                      2                      3
                      A                      A                      A
 Frequencies --     83.2677               117.1490               241.6190
 Red. masses --      1.9730                 2.8182                 1.2661
 Frc consts  --      0.0081                 0.0228                 0.0435
 IR Inten    --      0.3667                 0.9568                45.5864

                      4                      5                      6
                      A                      A                      A
 Frequencies --    249.2058               271.3628               314.0681
 Red. masses --      1.4380                 1.4604                 1.7753
 Frc consts  --      0.0526                 0.0634                 0.1032
 IR Inten    --     45.3284                20.9761                34.2651

                      7                      8                      9
                      A                      A                      A
 Frequencies --    351.9472               388.6197               447.9866
 Red. masses --      2.2113                 2.9539                 2.8749
 Frc consts  --      0.1614                 0.2628                 0.3399
 IR Inten    --     10.8548                 7.4273                17.4746

                     10                     11                     12
                      A                      A                      A
 Frequencies --    457.6012               521.6249               582.8010
 Red. masses --      4.1698                 2.8511                 2.0180
 Frc consts  --      0.5145                 0.4571                 0.4038
 IR Inten    --      1.9062                 0.2761                 1.8553

                     13                     14                     15
                      A                      A                      A
 Frequencies --    745.6605               838.0918               863.1744
 Red. masses --      1.7022                 1.7143                 2.5075
 Frc consts  --      0.5576                 0.7094                 1.1007
 IR Inten    --      2.4001                19.7633                 6.2624

                     16                     17                     18
                      A                      A                      A
 Frequencies --    877.5966               901.7455               925.5007
 Red. masses --      1.6091                 1.5743                 2.2727
 Frc consts  --      0.7302                 0.7542                 1.1469
 IR Inten    --     36.2153               126.1636                36.9651

                     19                     20                     21
                      A                      A                      A
 Frequencies --    945.9578               994.6039              1032.0740
 Red. masses --      1.6710                 1.7846                 2.0345
 Frc consts  --      0.8810                 1.0401                 1.2768
 IR Inten    --     63.0150               226.1154                21.3404

                     22                     23                     24
                      A                      A                      A
 Frequencies --   1063.7837              1073.7559              1094.8344
 Red. masses --      1.6052                 1.9511                 2.2140
 Frc consts  --      1.0702                 1.3254                 1.5636
 IR Inten    --      3.5990                15.3180                10.4794

                     25                     26                     27
                      A                      A                      A
 Frequencies --   1117.7883              1125.3041              1167.1645
 Red. masses --      1.3433                 1.8965                 1.8221
 Frc consts  --      0.9889                 1.4150                 1.4624
 IR Inten    --      8.1556                 2.3435                 5.6673

                     28                     29                     30
                      A                      A                      A
 Frequencies --   1191.3294              1217.2967              1241.3522
 Red. masses --      1.4838                 1.5004                 1.3562
 Frc consts  --      1.2408                 1.3099                 1.2313
 IR Inten    --     33.1303                 0.3978                 2.7341

                     31                     32                     33
                      A                      A                      A
 Frequencies --   1282.1023              1317.2695              1334.8920
 Red. masses --      1.2613                 1.2806                 1.2600
 Frc consts  --      1.2215                 1.3092                 1.3229
 IR Inten    --      4.1569                 2.2418                 4.6368

                     34                     35                     36
                      A                      A                      A
 Frequencies --   1355.7002              1369.4807              1372.0611
 Red. masses --      1.4321                 1.3074                 1.3654
 Frc consts  --      1.5508                 1.4446                 1.5144
 IR Inten    --      0.7479                 2.1399                 6.8326

                     37                     38                     39
                      A                      A                      A
 Frequencies --   1383.3835              1388.4141              1418.4796
 Red. masses --      1.3749                 1.4046                 1.3635
 Frc consts  --      1.5503                 1.5953                 1.6165
 IR Inten    --      8.1087                 3.5221                 1.6517

                     40                     41                     42
                      A                      A                      A
 Frequencies --   1432.1098              1492.2754              1492.3828
 Red. masses --      1.3512                 1.0805                 1.0849
 Frc consts  --      1.6328                 1.4177                 1.4236
 IR Inten    --      5.2735                 0.6675                 0.1462

                     43                     44                     45
                      A                      A                      A
 Frequencies --   1505.7687              1515.8468              1652.7622
 Red. masses --      1.0909                 1.0980                 1.0892
 Frc consts  --      1.4573                 1.4865                 1.7530
 IR Inten    --      5.2017                 1.0249                36.8419

                     46                     47                     48
                      A                      A                      A
 Frequencies --   1666.1030              2985.8477              3017.0544
 Red. masses --      1.0841                 1.0824                 1.0844
 Frc consts  --      1.7730                 5.6856                 5.8158
 IR Inten    --     39.8222                32.9970                52.7334

                     49                     50                     51
                      A                      A                      A
 Frequencies --   3023.9524              3026.4991              3035.1888
 Red. masses --      1.0628                 1.0639                 1.0657
 Frc consts  --      5.7258                 5.7416                 5.7841
 IR Inten    --     47.8216                59.7730                33.4850

                     52                     53                     54
                      A                      A                      A
 Frequencies --   3037.0993              3063.0866              3067.2340
 Red. masses --      1.0641                 1.1018                 1.0991
 Frc consts  --      5.7830                 6.0907                 6.0923
 IR Inten    --     97.2354                35.4449                24.0254

                     55                     56                     57
                      A                      A                      A
 Frequencies --   3080.9903              3084.7324              3449.4883
 Red. masses --      1.1008                 1.1032                 1.0506
 Frc consts  --      6.1563                 6.1849                 7.3657
 IR Inten    --     94.5934               176.6173                 7.0264

                     58                     59                     60
                      A                      A                      A
 Frequencies --   3465.3378              3523.4824              3548.4403
 Red. masses --      1.0513                 1.0894                 1.0904
 Frc consts  --      7.4382                 7.9689                 8.0896
 IR Inten    --      1.5303                 4.5301                 0.1085

 - Thermochemistry -
 -------------------
 Temperature   298.150 Kelvin.  Pressure   1.00000 Atm.
 Atom     1 has atomic number  7 and mass  14.00307

 Molecular mass:   114.11570 amu.
 Principal axes and moments of inertia in atomic units:
                           1         2         3
     Eigenvalues --   677.52947 937.812051465.28199
           X            0.99969   0.02468   0.00215
           Y           -0.02465   0.99961  -0.01311
           Z           -0.00248   0.01305   0.99991
 This molecule is an asymmetric top.
 Rotational symmetry number  1.
 Warning -- assumption of classical behavior for rotation
           may cause significant error
 Rotational temperatures (Kelvin)      0.12784     0.09236     0.05911
 Rotational constants (GHZ):           2.66371     1.92442     1.23167
 Zero-point vibrational energy     537313.1 (Joules/Mol)
                                  128.42091 (Kcal/Mol)
 Warning -- explicit consideration of  12 degrees of freedom as
           vibrations may cause significant error
 Vibrational temperatures:    119.80   168.55   347.64   358.55   390.43
          (Kelvin)            451.87   506.37   559.14   644.55   658.39
                              750.50   838.52  1072.84  1205.83  1241.92
                             1262.67  1297.41  1331.59  1361.02  1431.01
                             1484.92  1530.55  1544.90  1575.22  1608.25
                             1619.06  1679.29  1714.06  1751.42  1786.03
                             1844.66  1895.26  1920.61  1950.55  1970.38
                             1974.09  1990.38  1997.62  2040.88  2060.49
                             2147.05  2147.21  2166.47  2180.97  2377.96
                             2397.15  4295.97  4340.87  4350.79  4354.46
                             4366.96  4369.71  4407.10  4413.07  4432.86
                             4438.24  4963.04  4985.85  5069.51  5105.41

 Zero-point correction=                           0.204652 (Hartree/Particle)
 Thermal correction to Energy=                    0.213189
 Thermal correction to Enthalpy=                  0.214133
 Thermal correction to Gibbs Free Energy=         0.171973
 Sum of electronic and zero-point Energies=           -346.387887
 Sum of electronic and thermal Energies=              -346.379350
 Sum of electronic and thermal Enthalpies=            -346.378405
 Sum of electronic and thermal Free Energies=         -346.420566

                     E (Thermal)             CV                S
                      KCal/Mol        Cal/Mol-Kelvin    Cal/Mol-Kelvin
 Total                  133.778             33.187             88.734
 Electronic               0.000              0.000              0.000
 Translational            0.889              2.981             40.112
 Rotational               0.889              2.981             28.323
 Vibrational            132.001             27.225             20.300
 Vibration     1          0.600              1.961              3.812
 Vibration     2          0.608              1.935              3.147
 Vibration     3          0.658              1.777              1.791
 Vibration     4          0.662              1.764              1.736
 Vibration     5          0.675              1.726              1.588
 Vibration     6          0.702              1.647              1.341
 Vibration     7          0.728              1.571              1.157
 Vibration     8          0.757              1.494              1.005
 Vibration     9          0.807              1.365              0.802
 Vibration    10          0.816              1.344              0.773
 Vibration    11          0.877              1.202              0.606
 Vibration    12          0.940              1.069              0.480

 Optimization completed.
    -- Stationary point found.
 Normal termination of Gaussian 16 at Tue Jul  9 18:23:01 2024.
 Gaussian 16:  EM64L-G16RevA.03 25-Dec-2016

 ----------------------------------------------------------------------
 # TD(NStates=10, Root=1) B3LYP/6-31G** SCRF=(Solvent=water) volume pop
 =NPA density=current Geom=AllCheck Guess=Read
 ----------------------------------------------------------------------

 Structure from the checkpoint file:  "SSJXIUAHEKJCMH-OLQVQODUSA-N_conf_1_2.chk"
 ----------------------------------
 SSJXIUAHEKJCMH-OLQVQODUSA-N_conf_1
 ----------------------------------
 Charge =  0 Multiplicity = 1

                         Standard orientation:
 ---------------------------------------------------------------------
 Center     Atomic      Atomic             Coordinates (Angstroms)
 Number     Number       Type             X           Y           Z
 ---------------------------------------------------------------------
      1          7           0       -1.768768    1.543592    0.161391
      2          6           0       -0.576674    0.708096    0.370959
      3          6           0       -0.610574   -0.657986   -0.351890
      4          7           0       -1.911499   -1.313905   -0.130134
      5          6           0        0.606493   -1.524912    0.067825
      6          6           0        1.877386   -0.699085    0.379647
      7          6           0        1.886369    0.612578   -0.413957
      8          6           0        0.689112    1.506236   -0.023572
      9          1           0       -2.577302    0.929467    0.266344
     10          1           0       -1.788606    1.816569   -0.822630
     11          1           0       -0.533957    0.490732    1.450059
     12          1           0       -0.552820   -0.455741   -1.431057
     13          1           0       -1.940310   -1.668528    0.826369
     14          1           0       -1.974735   -2.140562   -0.721828
     15          1           0        0.810830   -2.252070   -0.727573
     16          1           0        0.324331   -2.110125    0.952644
     17          1           0        2.775415   -1.288705    0.164243
     18          1           0        1.915461   -0.463896    1.451119
     19          1           0        2.825090    1.155368   -0.256715
     20          1           0        1.844192    0.379650   -1.485847
     21          1           0        0.438616    2.164636   -0.865618
     22          1           0        0.962992    2.165832    0.807613
 ---------------------------------------------------------------------

 SCF Done:  E(RB3LYP) =  -346.592538601     A.U. after    1 cycles

 Excitation energies and oscillator strengths:

 Excited State   1:      Singlet-A      7.4052 eV  167.43 nm  f=0.0159  <S**2>=0.000
      31 -> 33         0.38526
      31 -> 34         0.22701
      32 -> 33         0.51675
      32 -> 34         0.14248
 This state for optimization and/or second-order correction.
 Total Energy, E(TD-HF/TD-DFT) =  -346.320404249
 Copying the excited state density for this state as the 1-particle RhoCI density.

 Excited State   2:      Singlet-A      7.5535 eV  164.14 nm  f=0.0192  <S**2>=0.000
      31 -> 33         0.47708
      31 -> 34         0.18841
      32 -> 33        -0.42278
      32 -> 35         0.12307
      32 -> 36        -0.17396

 Excited State   3:      Singlet-A      7.9219 eV  156.51 nm  f=0.0080  <S**2>=0.000
      31 -> 33        -0.10029
      31 -> 34         0.11575
      32 -> 33        -0.15789
      32 -> 34         0.52191
      32 -> 35        -0.38912
      32 -> 36         0.13290

 Excited State   4:      Singlet-A      7.9625 eV  155.71 nm  f=0.0093  <S**2>=0.000
      31 -> 33        -0.18635
      32 -> 34         0.39462
      32 -> 35         0.54270

 Excited State   5:      Singlet-A      8.0816 eV  153.42 nm  f=0.0237  <S**2>=0.000
      31 -> 33        -0.25676
      31 -> 34         0.61835
      32 -> 34        -0.18849

 Excited State   6:      Singlet-A      8.1371 eV  152.37 nm  f=0.0303  <S**2>=0.000
      31 -> 35         0.59803
      32 -> 33        -0.10256
      32 -> 36         0.31365

 Excited State   7:      Singlet-A      8.2437 eV  150.40 nm  f=0.0169  <S**2>=0.000
      31 -> 35        -0.34166
      31 -> 36        -0.11091
      32 -> 33        -0.10654
      32 -> 35         0.14431
      32 -> 36         0.55998

 Excited State   8:      Singlet-A      8.5907 eV  144.32 nm  f=0.0021  <S**2>=0.000
      31 -> 36         0.68426
      32 -> 36         0.14259

 Excited State   9:      Singlet-A      9.2777 eV  133.64 nm  f=0.0244  <S**2>=0.000
      30 -> 33         0.66676
      30 -> 34        -0.11257
      32 -> 37         0.17226

 Excited State  10:      Singlet-A      9.3229 eV  132.99 nm  f=0.0086  <S**2>=0.000
      30 -> 33        -0.17280
      32 -> 37         0.63478
      32 -> 38         0.11008
      32 -> 39         0.11267

 The electronic state is 1-A.
 Alpha  occ. eigenvalues --  -14.31126 -14.30152 -10.20229 -10.20166 -10.17552
 Alpha  occ. eigenvalues --  -10.17528 -10.17485 -10.17328  -0.89568  -0.85560
 Alpha  occ. eigenvalues --   -0.79902  -0.71989  -0.69648  -0.60454  -0.59893
 Alpha  occ. eigenvalues --   -0.53535  -0.49045  -0.47344  -0.46223  -0.44460
 Alpha  occ. eigenvalues --   -0.42058  -0.39496  -0.38937  -0.38538  -0.36101
 Alpha  occ. eigenvalues --   -0.34908  -0.34368  -0.31907  -0.30570  -0.29786
 Alpha  occ. eigenvalues --   -0.23750  -0.23016
 Alpha virt. eigenvalues --    0.08108   0.09516   0.09991   0.11222   0.14799
 Alpha virt. eigenvalues --    0.15311   0.16041   0.16328   0.17438   0.18154
 Alpha virt. eigenvalues --    0.18246   0.19646   0.20626   0.21694   0.23032

 Mulliken charges:
               1
     1  N   -0.523662
     2  C    0.069965
     3  C    0.042381
     4  N   -0.236907
     5  C   -0.119437
     6  C   -0.184148
     7  C   -0.183154
     8  C   -0.173319
     9  H    0.204171
    10  H    0.210869
    11  H    0.064991
    12  H    0.038583
    13  H    0.068911
    14  H    0.050259
    15  H    0.052217
    16  H    0.063862
    17  H    0.096023
    18  H    0.093410
    19  H    0.088039
    20  H    0.083969
    21  H    0.089769
    22  H    0.103208
 Sum of Mulliken charges =  -0.00000

 Dipole moment (field-independent basis, Debye):
    X=              0.3363    Y=             -0.3439    Z=             -0.6446  Tot=              0.8043
 Quadrupole moment (field-independent basis, Debye-Ang):
   XX=            -52.2132   YY=            -57.0852   ZZ=            -54.4068
   XY=              1.0454   XZ=              1.8414   YZ=             -2.5834

 Summary of Natural Population Analysis:

                                       Natural Population
                Natural  -----------------------------------------------
    Atom  No    Charge         Core      Valence    Rydberg      Total
 -----------------------------------------------------------------------
      N    1   -0.79437      1.99959     5.77985    0.01492     7.79437
      C    2   -0.08415      1.99916     4.06414    0.02086     6.08415
      C    3   -0.13138      1.99913     4.11309    0.01916     6.13138
      N    4   -0.53045      1.99942     5.51081    0.02022     7.53045
      C    5   -0.45883      1.99923     4.44474    0.01486     6.45883
      C    6   -0.46921      1.99932     4.45812    0.01177     6.46921
      C    7   -0.47086      1.99934     4.46028    0.01123     6.47086
      C    8   -0.47881      1.99930     4.46523    0.01429     6.47881
      H    9    0.35111      0.00000     0.62835    0.02054     0.64889
      H   10    0.35237      0.00000     0.62642    0.02120     0.64763
      H   11    0.21986      0.00000     0.75412    0.02603     0.78014
      H   12    0.19402      0.00000     0.76524    0.04073     0.80598
      H   13    0.24545      0.00000     0.68529    0.06927     0.75455
      H   14    0.22418      0.00000     0.70434    0.07148     0.77582
      H   15    0.20351      0.00000     0.76693    0.02955     0.79649
      H   16    0.21713      0.00000     0.75996    0.02291     0.78287
      H   17    0.24622      0.00000     0.74728    0.00650     0.75378
      H   18    0.22696      0.00000     0.76508    0.00796     0.77304
      H   19    0.24019      0.00000     0.75543    0.00438     0.75981
      H   20    0.22005      0.00000     0.77069    0.00926     0.77995
      H   21    0.23345      0.00000     0.75922    0.00733     0.76655
      H   22    0.24355      0.00000     0.75119    0.00526     0.75645
 =======================================================================
   * Total *   -0.00000     15.99450    47.53579    0.46970    64.00000

 1\1\GINC-CN36\SP\RB3LYP TD-FC\6-31G(d,p)\C6H14N2\QDUEZ\09-Jul-2024\0\\
 # TD(NStates=10, Root=1) B3LYP/6-31G** SCRF=(Solvent=water) volume pop
 =NPA density=current Geom=AllCheck Guess=Read\\SSJXIUAHEKJCMH-OLQVQODU
 SA-N_conf_1\\0,1\N,0,0.6192882773,2.4012606298,0.0538120848\C,0,0.2685
 015144,1.0213782235,-0.3148813906\C,0,0.7339822482,-0.0543449778,0.693
 0800521\N,0,2.1393856065,0.1810127484,1.0689238089\C,0,0.4664610894,-1
 .4764814998,0.1318916326\C,0,-0.792167051,-1.5623779368,-0.7641382637\
 C,0,-1.8228068366,-0.5004121198,-0.3636897759\C,0,-1.2569363214,0.9233

 Normal termination of Gaussian 16 at Tue Jul  9 18:43:28 2024.
