 Gaussian 16, Revision A.03,

 -------------------------------------------------------
 # opt=CalcFc B3LYP/6-31G** SCRF=(Solvent=water) scf=xqc
 -------------------------------------------------------

 ----------------------------------
 SSJXIUAHEKJCMH-OLQVQODUSA-N_conf_0
 ----------------------------------
 Symbolic Z-matrix:
 Charge =  0 Multiplicity = 1

 SCF Done:  E(RB3LYP) =  -346.585896357     A.U. after   11 cycles
 SCF Done:  E(RB3LYP) =  -346.589292007     A.U. after    9 cycles
 SCF Done:  E(RB3LYP) =  -346.589664246     A.U. after    9 cycles
 SCF Done:  E(RB3LYP) =  -346.589675461     A.U. after    9 cycles
 SCF Done:  E(RB3LYP) =  -346.589737204     A.U. after    9 cycles
 SCF Done:  E(RB3LYP) =  -346.589739248     A.U. after    7 cycles
 SCF Done:  E(RB3LYP) =  -346.589739364     A.U. after    6 cycles
 Optimization completed.
    -- Stationary point found.
 Normal termination of Gaussian 16 at Tue Jul  9 18:45:46 2024.

 ----------------------------------------------------------------------
 # freq B3LYP/6-31G** SCRF=(Solvent=water) volume NMR pop=NPA density=c
 urrent Geom=AllCheck Guess=Read
 ----------------------------------------------------------------------

 Structure from the checkpoint file:  "SSJXIUAHEKJCMH-OLQVQODUSA-N_conf_0_1.chk"
 ----------------------------------
 SSJXIUAHEKJCMH-OLQVQODUSA-N_conf_0
 ----------------------------------
 Charge =  0 Multiplicity = 1

 SCF Done:  E(RB3LYP) =  -346.589739364     A.U. after    1 cycles

      1  N    Isotropic =   233.5276   Anisotropy =    40.0068

      2  C    Isotropic =   141.8526   Anisotropy =    30.8047

      3  C    Isotropic =   138.7448   Anisotropy =    16.8745

      4  N    Isotropic =   225.9465   Anisotropy =    38.9084

      5  C    Isotropic =   154.4184   Anisotropy =    31.9528

      6  C    Isotropic =   171.2328   Anisotropy =     8.0627

      7  C    Isotropic =   167.6280   Anisotropy =    10.6281

      8  C    Isotropic =   164.7554   Anisotropy =    26.2865

      9  H    Isotropic =    29.8759   Anisotropy =    11.3569

     10  H    Isotropic =    31.5298   Anisotropy =    16.2105

     11  H    Isotropic =    28.9959   Anisotropy =     4.7023

     12  H    Isotropic =    29.1264   Anisotropy =     6.5080

     13  H    Isotropic =    30.7833   Anisotropy =    14.4952

     14  H    Isotropic =    31.8902   Anisotropy =    11.6223

     15  H    Isotropic =    29.6733   Anisotropy =     7.9924

     16  H    Isotropic =    30.6547   Anisotropy =     5.5959

     17  H    Isotropic =    30.2981   Anisotropy =     8.4296

     18  H    Isotropic =    30.4770   Anisotropy =    10.4514

     19  H    Isotropic =    30.0523   Anisotropy =     9.8277

     20  H    Isotropic =    30.1770   Anisotropy =     9.6398

     21  H    Isotropic =    30.3107   Anisotropy =     5.4001

     22  H    Isotropic =    30.4566   Anisotropy =     8.4391

  Exact polarizability: 100.581   0.618  95.841  -0.128   0.437  92.967
 Approx polarizability: 103.146   0.412 100.995   0.588   1.194 105.284

                      1                      2                      3
                      A                      A                      A
 Frequencies --     76.7167               170.6523               185.7105
 Red. masses --      2.5808                 1.7055                 1.2411
 Frc consts  --      0.0089                 0.0293                 0.0252
 IR Inten    --      0.2409                 7.7428                82.8849

                      4                      5                      6
                      A                      A                      A
 Frequencies --    234.6517               236.2119               310.7337
 Red. masses --      1.9454                 1.1123                 2.4671
 Frc consts  --      0.0631                 0.0366                 0.1404
 IR Inten    --      2.9977                47.1340                14.4841

                      7                      8                      9
                      A                      A                      A
 Frequencies --    351.1999               377.9763               443.4608
 Red. masses --      2.4858                 3.1275                 3.5208
 Frc consts  --      0.1806                 0.2633                 0.4079
 IR Inten    --     14.7430                 6.7003                 3.0658

                     10                     11                     12
                      A                      A                      A
 Frequencies --    484.3295               561.0926               620.9265
 Red. masses --      3.3551                 1.8665                 2.5741
 Frc consts  --      0.4637                 0.3462                 0.5847
 IR Inten    --      7.4669                 1.3841                 4.2495

                     13                     14                     15
                      A                      A                      A
 Frequencies --    746.8816               782.6828               850.3962
 Red. masses --      2.7970                 1.3415                 2.2500
 Frc consts  --      0.9193                 0.4842                 0.9587
 IR Inten    --      6.1592                 9.2204                 7.2263

                     16                     17                     18
                      A                      A                      A
 Frequencies --    866.4323               908.6253               934.4211
 Red. masses --      2.1387                 1.6452                 1.5220
 Frc consts  --      0.9459                 0.8003                 0.7830
 IR Inten    --     73.1694                20.0136                58.0162

                     19                     20                     21
                      A                      A                      A
 Frequencies --    951.4807               989.8802              1027.5250
 Red. masses --      2.0029                 1.9392                 1.8598
 Frc consts  --      1.0683                 1.1195                 1.1569
 IR Inten    --    187.7882                82.5108                47.3687

                     22                     23                     24
                      A                      A                      A
 Frequencies --   1036.8198              1065.6998              1090.9145
 Red. masses --      1.6380                 2.1352                 2.2759
 Frc consts  --      1.0374                 1.4288                 1.5959
 IR Inten    --     66.3621                10.2003                 4.9945

                     25                     26                     27
                      A                      A                      A
 Frequencies --   1122.3127              1130.8175              1152.3932
 Red. masses --      1.5689                 1.2872                 1.3189
 Frc consts  --      1.1644                 0.9698                 1.0320
 IR Inten    --      3.8125                10.2334                 7.1552

                     28                     29                     30
                      A                      A                      A
 Frequencies --   1173.6903              1227.2467              1246.7374
 Red. masses --      1.8048                 1.6186                 1.5215
 Frc consts  --      1.4649                 1.4363                 1.3934
 IR Inten    --     10.9354                 5.6162                 1.4002

                     31                     32                     33
                      A                      A                      A
 Frequencies --   1274.3722              1307.7889              1329.3279
 Red. masses --      1.2326                 1.2809                 1.2660
 Frc consts  --      1.1794                 1.2908                 1.3181
 IR Inten    --      3.8530                 0.4018                 3.9881

                     34                     35                     36
                      A                      A                      A
 Frequencies --   1337.8075              1364.4199              1369.8630
 Red. masses --      1.4494                 1.3316                 1.3740
 Frc consts  --      1.5284                 1.4606                 1.5191
 IR Inten    --      3.4118                 5.7490                 4.4995

                     37                     38                     39
                      A                      A                      A
 Frequencies --   1379.3634              1383.2176              1418.9188
 Red. masses --      1.3429                 1.4071                 1.3159
 Frc consts  --      1.5054                 1.5862                 1.5610
 IR Inten    --     14.5320                 1.3745                 7.8041

                     40                     41                     42
                      A                      A                      A
 Frequencies --   1446.0515              1494.8335              1496.5799
 Red. masses --      1.3510                 1.0748                 1.0898
 Frc consts  --      1.6645                 1.4150                 1.4381
 IR Inten    --      8.0500                 0.3557                 1.5115

                     43                     44                     45
                      A                      A                      A
 Frequencies --   1507.9862              1518.4704              1655.2342
 Red. masses --      1.0832                 1.1009                 1.0869
 Frc consts  --      1.4513                 1.4956                 1.7546
 IR Inten    --      5.0023                 2.0408                39.3123

                     46                     47                     48
                      A                      A                      A
 Frequencies --   1673.8091              3013.8587              3021.5239
 Red. masses --      1.0821                 1.0696                 1.0701
 Frc consts  --      1.7862                 5.7241                 5.7563
 IR Inten    --     32.6003                27.1742                47.8796

                     49                     50                     51
                      A                      A                      A
 Frequencies --   3028.6608              3033.1462              3040.6187
 Red. masses --      1.0723                 1.0725                 1.0660
 Frc consts  --      5.7954                 5.8134                 5.8069
 IR Inten    --     29.5013                21.0309                61.7078

                     52                     53                     54
                      A                      A                      A
 Frequencies --   3043.4389              3066.9184              3071.4932
 Red. masses --      1.0829                 1.0998                 1.0970
 Frc consts  --      5.9100                 6.0952                 6.0975
 IR Inten    --    102.5767                32.1957               125.4067

                     55                     56                     57
                      A                      A                      A
 Frequencies --   3080.7010              3091.6209              3451.5215
 Red. masses --      1.0996                 1.0998                 1.0509
 Frc consts  --      6.1486                 6.1937                 7.3764
 IR Inten    --     73.5222               126.3883                10.7939

                     58                     59                     60
                      A                      A                      A
 Frequencies --   3476.2233              3521.2950              3557.2500
 Red. masses --      1.0513                 1.0888                 1.0905
 Frc consts  --      7.4852                 7.9545                 8.1306
 IR Inten    --      0.8600                 6.4657                 0.5066

 - Thermochemistry -
 -------------------
 Temperature   298.150 Kelvin.  Pressure   1.00000 Atm.
 Atom     1 has atomic number  7 and mass  14.00307

 Molecular mass:   114.11570 amu.
 Principal axes and moments of inertia in atomic units:
                           1         2         3
     Eigenvalues --   660.15227 966.211011370.68666
           X            0.99981   0.01963  -0.00070
           Y           -0.01963   0.99981  -0.00190
           Z            0.00067   0.00191   1.00000
 This molecule is an asymmetric top.
 Rotational symmetry number  1.
 Warning -- assumption of classical behavior for rotation
           may cause significant error
 Rotational temperatures (Kelvin)      0.13120     0.08964     0.06319
 Rotational constants (GHZ):           2.73383     1.86785     1.31667
 Zero-point vibrational energy     537212.6 (Joules/Mol)
                                  128.39689 (Kcal/Mol)
 Warning -- explicit consideration of  11 degrees of freedom as
           vibrations may cause significant error
 Vibrational temperatures:    110.38   245.53   267.20   337.61   339.86
          (Kelvin)            447.08   505.30   543.82   638.04   696.84
                              807.29   893.37  1074.60  1126.11  1223.53
                             1246.60  1307.31  1344.42  1368.97  1424.22
                             1478.38  1491.75  1533.30  1569.58  1614.76
                             1626.99  1658.04  1688.68  1765.73  1793.78
                             1833.54  1881.62  1912.61  1924.81  1963.10
                             1970.93  1984.60  1990.14  2041.51  2080.55
                             2150.73  2153.24  2169.66  2184.74  2381.51
                             2408.24  4336.27  4347.30  4357.57  4364.02
                             4374.77  4378.83  4412.61  4419.19  4432.44
                             4448.15  4965.97  5001.51  5066.36  5118.09

 Zero-point correction=                           0.204613 (Hartree/Particle)
 Thermal correction to Energy=                    0.213200
 Thermal correction to Enthalpy=                  0.214144
 Thermal correction to Gibbs Free Energy=         0.171923
 Sum of electronic and zero-point Energies=           -346.385126
 Sum of electronic and thermal Energies=              -346.376539
 Sum of electronic and thermal Enthalpies=            -346.375595
 Sum of electronic and thermal Free Energies=         -346.417817

                     E (Thermal)             CV                S
                      KCal/Mol        Cal/Mol-Kelvin    Cal/Mol-Kelvin
 Total                  133.785             33.278             88.863
 Electronic               0.000              0.000              0.000
 Translational            0.889              2.981             40.112
 Rotational               0.889              2.981             28.260
 Vibrational            132.008             27.316             20.492
 Vibration     1          0.599              1.965              3.973
 Vibration     2          0.626              1.879              2.428
 Vibration     3          0.632              1.859              2.270
 Vibration     4          0.654              1.788              1.843
 Vibration     5          0.655              1.785              1.831
 Vibration     6          0.700              1.653              1.358
 Vibration     7          0.728              1.573              1.161
 Vibration     8          0.748              1.517              1.047
 Vibration     9          0.803              1.375              0.816
 Vibration    10          0.840              1.285              0.698
 Vibration    11          0.917              1.115              0.522

 Optimization completed.
    -- Stationary point found.
 Normal termination of Gaussian 16 at Tue Jul  9 19:17:39 2024.
 Gaussian 16:  EM64L-G16RevA.03 25-Dec-2016

 ----------------------------------------------------------------------
 # TD(NStates=10, Root=1) B3LYP/6-31G** SCRF=(Solvent=water) volume pop
 =NPA density=current Geom=AllCheck Guess=Read
 ----------------------------------------------------------------------

 Structure from the checkpoint file:  "SSJXIUAHEKJCMH-OLQVQODUSA-N_conf_0_2.chk"
 ----------------------------------
 SSJXIUAHEKJCMH-OLQVQODUSA-N_conf_0
 ----------------------------------
 Charge =  0 Multiplicity = 1

                         Standard orientation:
 ---------------------------------------------------------------------
 Center     Atomic      Atomic             Coordinates (Angstroms)
 Number     Number       Type             X           Y           Z
 ---------------------------------------------------------------------
      1          7           0        1.933089   -1.322851   -0.336484
      2          6           0        0.597678   -0.713165   -0.428019
      3          6           0        0.604324    0.850460   -0.362888
      4          7           0        1.627441    1.320957    0.592197
      5          6           0       -0.816676    1.404104   -0.060824
      6          6           0       -1.928455    0.430902   -0.471172
      7          6           0       -1.825343   -0.888664    0.329263
      8          6           0       -0.356637   -1.279535    0.634331
      9          1           0        2.443970   -0.790671    0.370459
     10          1           0        2.433602   -1.111319   -1.200015
     11          1           0        0.192671   -0.994555   -1.408344
     12          1           0        0.927641    1.209334   -1.348418
     13          1           0        1.771986    2.319348    0.456502
     14          1           0        1.266384    1.233133    1.541815
     15          1           0       -0.948643    2.381032   -0.540536
     16          1           0       -0.894078    1.583692    1.020956
     17          1           0       -1.853661    0.226467   -1.546824
     18          1           0       -2.912647    0.887705   -0.318084
     19          1           0       -2.315004   -1.692017   -0.233534
     20          1           0       -2.378971   -0.791456    1.270508
     21          1           0       -0.060709   -0.904522    1.623864
     22          1           0       -0.245593   -2.367519    0.677510
 ---------------------------------------------------------------------

 SCF Done:  E(RB3LYP) =  -346.589739364     A.U. after    1 cycles

 Excitation energies and oscillator strengths:

 Excited State   1:      Singlet-A      7.2182 eV  171.77 nm  f=0.0274  <S**2>=0.000
      31 -> 33         0.67422
      31 -> 35        -0.13672
      32 -> 33         0.13078
 This state for optimization and/or second-order correction.
 Total Energy, E(TD-HF/TD-DFT) =  -346.324476829
 Copying the excited state density for this state as the 1-particle RhoCI density.

 Excited State   2:      Singlet-A      7.2385 eV  171.28 nm  f=0.0156  <S**2>=0.000
      31 -> 33        -0.13297
      32 -> 33         0.66427
      32 -> 34         0.15218

 Excited State   3:      Singlet-A      7.8270 eV  158.41 nm  f=0.0183  <S**2>=0.000
      32 -> 33        -0.18133
      32 -> 34         0.66113
      32 -> 36        -0.11930

 Excited State   4:      Singlet-A      7.9431 eV  156.09 nm  f=0.0070  <S**2>=0.000
      31 -> 34         0.67609
      31 -> 35         0.14125

 Excited State   5:      Singlet-A      8.0179 eV  154.63 nm  f=0.0117  <S**2>=0.000
      32 -> 34         0.13796
      32 -> 35         0.67571

 Excited State   6:      Singlet-A      8.1772 eV  151.62 nm  f=0.0150  <S**2>=0.000
      31 -> 33         0.12901
      31 -> 34        -0.14849
      31 -> 35         0.66995

 Excited State   7:      Singlet-A      8.7602 eV  141.53 nm  f=0.0050  <S**2>=0.000
      32 -> 34         0.12443
      32 -> 35        -0.10589
      32 -> 36         0.67116

 Excited State   8:      Singlet-A      8.9300 eV  138.84 nm  f=0.0116  <S**2>=0.000
      30 -> 33         0.13343
      31 -> 36         0.64566
      31 -> 37         0.17279
      31 -> 38         0.11148

 Excited State   9:      Singlet-A      8.9922 eV  137.88 nm  f=0.0098  <S**2>=0.000
      30 -> 33         0.68376
      31 -> 36        -0.12589

 Excited State  10:      Singlet-A      9.1682 eV  135.23 nm  f=0.0232  <S**2>=0.000
      29 -> 33         0.65577
      32 -> 37         0.20971

 The electronic state is 1-A.
 Alpha  occ. eigenvalues --  -14.31129 -14.29983 -10.20377 -10.20005 -10.17509
 Alpha  occ. eigenvalues --  -10.17488 -10.17325 -10.17049  -0.89483  -0.85356
 Alpha  occ. eigenvalues --   -0.79797  -0.72052  -0.69536  -0.60723  -0.59120
 Alpha  occ. eigenvalues --   -0.52665  -0.50637  -0.47103  -0.45240  -0.44626
 Alpha  occ. eigenvalues --   -0.42200  -0.39943  -0.38345  -0.37669  -0.36349
 Alpha  occ. eigenvalues --   -0.35222  -0.34499  -0.32069  -0.30029  -0.29396
 Alpha  occ. eigenvalues --   -0.23660  -0.23057
 Alpha virt. eigenvalues --    0.07273   0.09468   0.09746   0.13031   0.14118
 Alpha virt. eigenvalues --    0.15365   0.15597   0.17149   0.17786   0.18684
 Alpha virt. eigenvalues --    0.18775   0.19319   0.21154   0.21713   0.22249

 Mulliken charges:
               1
     1  N   -0.579797
     2  C    0.050807
     3  C    0.025835
     4  N   -0.159563
     5  C   -0.139386
     6  C   -0.195598
     7  C   -0.185626
     8  C   -0.120984
     9  H    0.202985
    10  H    0.198183
    11  H    0.069752
    12  H    0.049220
    13  H    0.060731
    14  H    0.095389
    15  H    0.067420
    16  H    0.082649
    17  H    0.107623
    18  H    0.112837
    19  H    0.091744
    20  H    0.093909
    21  H    0.008910
    22  H    0.062961
 Sum of Mulliken charges =   0.00000

 Dipole moment (field-independent basis, Debye):
    X=             -0.3765    Y=              2.7710    Z=             -0.5012  Tot=              2.8411
 Quadrupole moment (field-independent basis, Debye-Ang):
   XX=            -50.4286   YY=            -59.1722   ZZ=            -53.0237
   XY=              3.5546   XZ=              0.3771   YZ=              1.3557

 Summary of Natural Population Analysis:

                                       Natural Population
                Natural  -----------------------------------------------
    Atom  No    Charge         Core      Valence    Rydberg      Total
 -----------------------------------------------------------------------
      N    1   -0.89890      1.99965     5.88239    0.01686     7.89890
      C    2   -0.07355      1.99917     4.05323    0.02115     6.07355
      C    3   -0.14075      1.99916     4.12281    0.01877     6.14075
      N    4   -0.41463      1.99937     5.39589    0.01938     7.41463
      C    5   -0.46039      1.99923     4.44746    0.01370     6.46039
      C    6   -0.46995      1.99931     4.45926    0.01138     6.46995
      C    7   -0.47147      1.99936     4.46000    0.01212     6.47147
      C    8   -0.48746      1.99928     4.47293    0.01525     6.48746
      H    9    0.35083      0.00000     0.63543    0.01374     0.64917
      H   10    0.35088      0.00000     0.63051    0.01861     0.64912
      H   11    0.21483      0.00000     0.76904    0.01612     0.78517
      H   12    0.19608      0.00000     0.76684    0.03708     0.80392
      H   13    0.22494      0.00000     0.70480    0.07027     0.77506
      H   14    0.26012      0.00000     0.67269    0.06720     0.73988
      H   15    0.21964      0.00000     0.75880    0.02156     0.78036
      H   16    0.22589      0.00000     0.75655    0.01756     0.77411
      H   17    0.23582      0.00000     0.76023    0.00395     0.76418
      H   18    0.26086      0.00000     0.73682    0.00232     0.73914
      H   19    0.23517      0.00000     0.76080    0.00403     0.76483
      H   20    0.23606      0.00000     0.76062    0.00333     0.76394
      H   21    0.17601      0.00000     0.79289    0.03110     0.82399
      H   22    0.22942      0.00000     0.76130    0.00928     0.77058
 =======================================================================
   * Total *   -0.00056     15.99453    47.56130    0.44473    64.00056

 1\1\GINC-CN34\SP\RB3LYP TD-FC\6-31G(d,p)\C6H14N2\QDUEZ\09-Jul-2024\0\\
 # TD(NStates=10, Root=1) B3LYP/6-31G** SCRF=(Solvent=water) volume pop
 =NPA density=current Geom=AllCheck Guess=Read\\SSJXIUAHEKJCMH-OLQVQODU
 SA-N_conf_0\\0,1\N,0,2.147120776,-0.5866186656,-1.1276869438\C,0,0.734
 3285453,-0.3551597076,-0.7902500378\C,0,0.4520475081,1.0454395015,-0.1
 51618374\N,0,1.5564128901,1.4318148114,0.7491675484\C,0,-0.9407230211,
 1.075442702,0.5385231552\C,0,-1.9064147046,0.032006684,-0.0361436335\C
 ,0,-1.3673114907,-1.3995008021,0.1935013725\C,0,0.1793162785,-1.466546

 Normal termination of Gaussian 16 at Tue Jul  9 19:59:10 2024.
