 Gaussian 16, Revision A.03,

 -------------------------------------------------------
 # opt=CalcFc B3LYP/6-31G** SCRF=(Solvent=water) scf=xqc
 -------------------------------------------------------

 ----------------------------------
 GKXVJHDEWHKBFH-UHFFFAOYSA-N_conf_0
 ----------------------------------
 Symbolic Z-matrix:
 Charge =  0 Multiplicity = 1

 SCF Done:  E(RB3LYP) =  -421.591677021     A.U. after   11 cycles
 SCF Done:  E(RB3LYP) =  -421.594562838     A.U. after   10 cycles
 SCF Done:  E(RB3LYP) =  -421.594603393     A.U. after    9 cycles
 SCF Done:  E(RB3LYP) =  -421.594604456     A.U. after    7 cycles
 Optimization completed.
    -- Stationary point found.
 Normal termination of Gaussian 16 at Wed Jul 17 18:35:55 2024.

 ----------------------------------------------------------------------
 # freq B3LYP/6-31G** SCRF=(Solvent=water) volume NMR pop=NPA density=c
 urrent Geom=AllCheck Guess=Read
 ----------------------------------------------------------------------

 Structure from the checkpoint file:  "GKXVJHDEWHKBFH-UHFFFAOYSA-N_conf_0_1.chk"
 ----------------------------------
 GKXVJHDEWHKBFH-UHFFFAOYSA-N_conf_0
 ----------------------------------
 Charge =  0 Multiplicity = 1

 SCF Done:  E(RB3LYP) =  -421.594604456     A.U. after    1 cycles

      1  N    Isotropic =   219.4155   Anisotropy =    29.7281

      2  C    Isotropic =   145.3074   Anisotropy =    26.4469

      3  C    Isotropic =    53.4627   Anisotropy =   180.5918

      4  C    Isotropic =    53.4627   Anisotropy =   180.5918

      5  C    Isotropic =   145.3074   Anisotropy =    26.4469

      6  N    Isotropic =   219.4155   Anisotropy =    29.7281

      7  C    Isotropic =    67.0174   Anisotropy =   150.9779

      8  C    Isotropic =    69.3823   Anisotropy =   166.4137

      9  C    Isotropic =    69.3823   Anisotropy =   166.4137

     10  C    Isotropic =    67.0173   Anisotropy =   150.9780

     11  H    Isotropic =    31.0616   Anisotropy =    10.8875

     12  H    Isotropic =    31.2381   Anisotropy =    11.5645

     13  H    Isotropic =    28.3663   Anisotropy =     6.8557

     14  H    Isotropic =    27.8860   Anisotropy =     4.7521

     15  H    Isotropic =    27.8860   Anisotropy =     4.7521

     16  H    Isotropic =    28.3663   Anisotropy =     6.8557

     17  H    Isotropic =    31.0616   Anisotropy =    10.8875

     18  H    Isotropic =    31.2381   Anisotropy =    11.5645

     19  H    Isotropic =    24.4381   Anisotropy =     6.9362

     20  H    Isotropic =    24.3728   Anisotropy =     4.2866

     21  H    Isotropic =    24.3728   Anisotropy =     4.2867

     22  H    Isotropic =    24.4381   Anisotropy =     6.9362

  Exact polarizability: 151.646   0.000 138.680  -0.000  18.093  79.259
 Approx polarizability: 177.128   0.000 163.230  -0.000  24.513  93.693

                      1                      2                      3
                      A                      A                      A
 Frequencies --     54.6272                65.9452               112.4547
 Red. masses --      2.1554                 3.2137                 3.9320
 Frc consts  --      0.0038                 0.0082                 0.0293
 IR Inten    --      2.4799                 0.2363                 0.0054

                      4                      5                      6
                      A                      A                      A
 Frequencies --    149.6024               232.1703               250.3696
 Red. masses --      4.0581                 1.3332                 1.2086
 Frc consts  --      0.0535                 0.0423                 0.0446
 IR Inten    --      1.9740                32.7237                93.9049

                      7                      8                      9
                      A                      A                      A
 Frequencies --    294.4141               349.7052               359.6539
 Red. masses --      2.7549                 3.6780                 1.8033
 Frc consts  --      0.1407                 0.2650                 0.1374
 IR Inten    --      5.0375                 4.7810                14.4888

                     10                     11                     12
                      A                      A                      A
 Frequencies --    410.9549               471.5113               548.7160
 Red. masses --      2.1059                 3.4741                 4.2372
 Frc consts  --      0.2095                 0.4551                 0.7517
 IR Inten    --     13.1971                 6.8790                 0.2636

                     13                     14                     15
                      A                      A                      A
 Frequencies --    590.1034               613.2740               722.6871
 Red. masses --      3.3314                 4.4004                 4.4378
 Frc consts  --      0.6835                 0.9751                 1.3656
 IR Inten    --     42.3832                 0.0315                 2.6233

                     16                     17                     18
                      A                      A                      A
 Frequencies --    776.1256               792.1974               825.1097
 Red. masses --      1.3083                 3.2642                 2.9797
 Frc consts  --      0.4643                 1.2069                 1.1952
 IR Inten    --     49.2865                 9.3199                28.5184

                     19                     20                     21
                      A                      A                      A
 Frequencies --    880.6324               892.6378               894.5327
 Red. masses --      1.2944                 1.4559                 1.3794
 Frc consts  --      0.5914                 0.6835                 0.6503
 IR Inten    --      1.4301                23.3084                 6.3488

                     22                     23                     24
                      A                      A                      A
 Frequencies --    931.8000               936.4241               959.5413
 Red. masses --      2.3472                 2.4163                 1.3832
 Frc consts  --      1.2007                 1.2484                 0.7504
 IR Inten    --    247.4246               315.9156                 2.4111

                     25                     26                     27
                      A                      A                      A
 Frequencies --    994.7025              1070.5287              1086.8710
 Red. masses --      1.2660                 2.2650                 2.2405
 Frc consts  --      0.7380                 1.5294                 1.5594
 IR Inten    --      0.2182                 0.9234                28.6920

                     28                     29                     30
                      A                      A                      A
 Frequencies --   1091.1327              1096.9891              1148.3119
 Red. masses --      2.2757                 1.9388                 1.2152
 Frc consts  --      1.5963                 1.3747                 0.9441
 IR Inten    --     68.6815                 6.4668                 1.4012

                     31                     32                     33
                      A                      A                      A
 Frequencies --   1184.7530              1187.6621              1199.6854
 Red. masses --      1.0975                 1.1943                 2.6399
 Frc consts  --      0.9076                 0.9926                 2.2386
 IR Inten    --      0.0508                 2.2847                 5.9283

                     34                     35                     36
                      A                      A                      A
 Frequencies --   1230.2221              1326.1871              1348.2897
 Red. masses --      2.7935                 1.4581                 4.9839
 Frc consts  --      2.4910                 1.5109                 5.3381
 IR Inten    --     10.5828                 0.5809                 0.2311

                     37                     38                     39
                      A                      A                      A
 Frequencies --   1371.9105              1379.1859              1391.6463
 Red. masses --      1.2752                 1.2621                 1.1714
 Frc consts  --      1.4141                 1.4144                 1.3366
 IR Inten    --     18.6271                31.5862                 0.5385

                     40                     41                     42
                      A                      A                      A
 Frequencies --   1398.4754              1487.9279              1491.0792
 Red. masses --      1.2285                 2.0190                 1.1515
 Frc consts  --      1.4156                 2.6335                 1.5084
 IR Inten    --      0.0226                 3.7525                 6.3487

                     43                     44                     45
                      A                      A                      A
 Frequencies --   1510.0195              1529.0845              1627.6083
 Red. masses --      1.1362                 2.2294                 5.8873
 Frc consts  --      1.5265                 3.0712                 9.1890
 IR Inten    --      0.5771                10.7408                 0.0077

                     46                     47                     48
                      A                      A                      A
 Frequencies --   1653.5676              1661.1974              1664.2273
 Red. masses --      5.7364                 1.0839                 1.0844
 Frc consts  --      9.2413                 1.7623                 1.7695
 IR Inten    --      0.1338                 6.1020                61.6852

                     49                     50                     51
                      A                      A                      A
 Frequencies --   3054.5306              3058.7754              3096.0185
 Red. masses --      1.0600                 1.0615                 1.1054
 Frc consts  --      5.8271                 5.8517                 6.2426
 IR Inten    --     94.2693                31.8046                56.7179

                     52                     53                     54
                      A                      A                      A
 Frequencies --   3101.8832              3166.4361              3169.4436
 Red. masses --      1.1037                 1.0871                 1.0889
 Frc consts  --      6.2569                 6.4221                 6.4444
 IR Inten    --     38.0701                34.3676                 1.8409

                     55                     56                     57
                      A                      A                      A
 Frequencies --   3187.9558              3203.2034              3473.6507
 Red. masses --      1.0908                 1.0976                 1.0505
 Frc consts  --      6.5315                 6.6355                 7.4682
 IR Inten    --     34.9648                40.1166                 0.8193

                     58                     59                     60
                      A                      A                      A
 Frequencies --   3473.7114              3550.7488              3550.8156
 Red. masses --      1.0504                 1.0915                 1.0915
 Frc consts  --      7.4681                 8.1080                 8.1083
 IR Inten    --      0.0028                 0.0348                 0.0323

 - Thermochemistry -
 -------------------
 Temperature   298.150 Kelvin.  Pressure   1.00000 Atm.
 Atom     1 has atomic number  7 and mass  14.00307

 Molecular mass:   136.10005 amu.
 Principal axes and moments of inertia in atomic units:
                           1         2         3
     Eigenvalues --  1181.718571418.145812307.15319
           X            1.00000  -0.00000   0.00000
           Y            0.00000   0.99998   0.00669
           Z           -0.00000  -0.00669   0.99998
 This molecule is an asymmetric top.
 Rotational symmetry number  1.
 Warning -- assumption of classical behavior for rotation
           may cause significant error
 Rotational temperatures (Kelvin)      0.07329     0.06108     0.03754
 Rotational constants (GHZ):           1.52722     1.27261     0.78224
 Zero-point vibrational energy     504427.1 (Joules/Mol)
                                  120.56097 (Kcal/Mol)
 Warning -- explicit consideration of  14 degrees of freedom as
           vibrations may cause significant error
 Vibrational temperatures:     78.60    94.88   161.80   215.24   334.04
          (Kelvin)            360.23   423.60   503.15   517.46   591.27
                              678.40   789.48   849.03   882.36  1039.79
                             1116.67  1139.80  1187.15  1267.03  1284.31
                             1287.03  1340.65  1347.31  1380.57  1431.16
                             1540.25  1563.76  1569.90  1578.32  1652.16
                             1704.60  1708.78  1726.08  1770.02  1908.09
                             1939.89  1973.87  1984.34  2002.27  2012.09
                             2140.80  2145.33  2172.58  2200.01  2341.77
                             2379.12  2390.09  2394.45  4394.79  4400.90
                             4454.48  4462.92  4555.80  4560.12  4586.76
                             4608.70  4997.81  4997.90  5108.74  5108.83

 Zero-point correction=                           0.192126 (Hartree/Particle)
 Thermal correction to Energy=                    0.202091
 Thermal correction to Enthalpy=                  0.203036
 Thermal correction to Gibbs Free Energy=         0.156430
 Sum of electronic and zero-point Energies=           -421.402478
 Sum of electronic and thermal Energies=              -421.392513
 Sum of electronic and thermal Enthalpies=            -421.391569
 Sum of electronic and thermal Free Energies=         -421.438174

                     E (Thermal)             CV                S
                      KCal/Mol        Cal/Mol-Kelvin    Cal/Mol-Kelvin
 Total                  126.814             37.498             98.089
 Electronic               0.000              0.000              0.000
 Translational            0.889              2.981             40.637
 Rotational               0.889              2.981             29.737
 Vibrational            125.037             31.536             27.715
 Vibration     1          0.596              1.976              4.642
 Vibration     2          0.597              1.971              4.271
 Vibration     3          0.607              1.939              3.226
 Vibration     4          0.618              1.903              2.677
 Vibration     5          0.653              1.792              1.862
 Vibration     6          0.663              1.762              1.728
 Vibration     7          0.689              1.684              1.448
 Vibration     8          0.727              1.576              1.168
 Vibration     9          0.734              1.555              1.124
 Vibration    10          0.775              1.446              0.923
 Vibration    11          0.828              1.313              0.733
 Vibration    12          0.904              1.142              0.547
 Vibration    13          0.947              1.053              0.467
 Vibration    14          0.973              1.004              0.427

 Optimization completed.
    -- Stationary point found.
 Normal termination of Gaussian 16 at Wed Jul 17 18:41:33 2024.
 Gaussian 16:  ES64L-G16RevA.03 25-Dec-2016

 ----------------------------------------------------------------------
 # TD(NStates=10, Root=1) B3LYP/6-31G** SCRF=(Solvent=water) volume pop
 =NPA density=current Geom=AllCheck Guess=Read
 ----------------------------------------------------------------------

 Structure from the checkpoint file:  "GKXVJHDEWHKBFH-UHFFFAOYSA-N_conf_0_2.chk"
 ----------------------------------
 GKXVJHDEWHKBFH-UHFFFAOYSA-N_conf_0
 ----------------------------------
 Charge =  0 Multiplicity = 1

                         Standard orientation:
 ---------------------------------------------------------------------
 Center     Atomic      Atomic             Coordinates (Angstroms)
 Number     Number       Type             X           Y           Z
 ---------------------------------------------------------------------
      1          7           0        1.797972    2.184838   -0.701531
      2          6           0        1.286669    1.451697    0.474847
      3          6           0        0.004670    0.661492    0.248009
      4          6           0        0.004670   -0.661492   -0.248009
      5          6           0        1.286669   -1.451698   -0.474847
      6          7           0        1.797972   -2.184838    0.701531
      7          6           0       -1.223320   -1.294347   -0.489849
      8          6           0       -2.437997   -0.652147   -0.247799
      9          6           0       -2.437997    0.652146    0.247799
     10          6           0       -1.223320    1.294346    0.489850
     11          1           0        1.976737    1.521200   -1.454167
     12          1           0        1.053185    2.784223   -1.055259
     13          1           0        1.110539    2.187359    1.266929
     14          1           0        2.091018    0.802448    0.833733
     15          1           0        2.091018   -0.802448   -0.833734
     16          1           0        1.110538   -2.187359   -1.266928
     17          1           0        1.976738   -1.521199    1.454167
     18          1           0        1.053186   -2.784223    1.055260
     19          1           0       -1.222979   -2.311187   -0.876459
     20          1           0       -3.374441   -1.165729   -0.445388
     21          1           0       -3.374441    1.165729    0.445388
     22          1           0       -1.222979    2.311186    0.876459
 ---------------------------------------------------------------------

 SCF Done:  E(RB3LYP) =  -421.594604456     A.U. after    1 cycles

 Excitation energies and oscillator strengths:

 Excited State   1:      Singlet-A      5.1499 eV  240.75 nm  f=0.0039  <S**2>=0.000
      34 -> 38         0.17055
      35 -> 39        -0.11070
      36 -> 38         0.38122
      37 -> 39         0.55865
 This state for optimization and/or second-order correction.
 Total Energy, E(TD-HF/TD-DFT) =  -421.405350647
 Copying the excited state density for this state as the 1-particle RhoCI density.

 Excited State   2:      Singlet-A      5.3119 eV  233.41 nm  f=0.1199  <S**2>=0.000
      35 -> 38         0.19743
      36 -> 39        -0.10752
      37 -> 38         0.66823

 Excited State   3:      Singlet-A      5.5843 eV  222.02 nm  f=0.2009  <S**2>=0.000
      34 -> 38        -0.16275
      35 -> 39        -0.29007
      36 -> 38         0.50987
      37 -> 39        -0.35505

 Excited State   4:      Singlet-A      5.7940 eV  213.99 nm  f=0.0110  <S**2>=0.000
      34 -> 39        -0.28659
      35 -> 38         0.16710
      36 -> 39         0.62106

 Excited State   5:      Singlet-A      5.8519 eV  211.87 nm  f=0.0038  <S**2>=0.000
      34 -> 38         0.52131
      35 -> 39        -0.42545
      36 -> 38        -0.16465
      37 -> 39        -0.12980

 Excited State   6:      Singlet-A      6.0984 eV  203.31 nm  f=0.0285  <S**2>=0.000
      34 -> 39         0.39475
      35 -> 38         0.55836
      37 -> 38        -0.15394

 Excited State   7:      Singlet-A      6.5997 eV  187.86 nm  f=0.8523  <S**2>=0.000
      34 -> 38         0.40649
      35 -> 39         0.46175
      36 -> 38         0.25262
      37 -> 39        -0.20511

 Excited State   8:      Singlet-A      6.6159 eV  187.40 nm  f=0.6393  <S**2>=0.000
      34 -> 39         0.50394
      35 -> 38        -0.33163
      36 -> 39         0.31059
      37 -> 38         0.15474

 Excited State   9:      Singlet-A      7.3493 eV  168.70 nm  f=0.0005  <S**2>=0.000
      35 -> 40         0.11766
      36 -> 41         0.15516
      37 -> 40         0.66479

 Excited State  10:      Singlet-A      7.5462 eV  164.30 nm  f=0.0017  <S**2>=0.000
      33 -> 38        -0.10667
      34 -> 40        -0.19460
      35 -> 41         0.13710
      36 -> 40         0.41291
      37 -> 41         0.50249

 The electronic state is 1-A.
 Alpha  occ. eigenvalues --  -14.31611 -14.31611 -10.21118 -10.21117 -10.19332
 Alpha  occ. eigenvalues --  -10.19283 -10.18881 -10.18830 -10.18750 -10.18746
 Alpha  occ. eigenvalues --   -0.88922  -0.87709  -0.84387  -0.75504  -0.74903
 Alpha  occ. eigenvalues --   -0.67136  -0.65025  -0.59529  -0.57263  -0.50458
 Alpha  occ. eigenvalues --   -0.50059  -0.47958  -0.45452  -0.44224  -0.42582
 Alpha  occ. eigenvalues --   -0.42437  -0.41344  -0.40549  -0.37096  -0.36437
 Alpha  occ. eigenvalues --   -0.35655  -0.34233  -0.33770  -0.25779  -0.25609
 Alpha  occ. eigenvalues --   -0.23998  -0.22743
 Alpha virt. eigenvalues --   -0.00747  -0.00317   0.08070   0.09226   0.10234
 Alpha virt. eigenvalues --    0.12677   0.13888   0.14281   0.15898   0.15963
 Alpha virt. eigenvalues --    0.17851   0.18251   0.20268   0.21357   0.22239

 Mulliken charges:
               1
     1  N   -0.567900
     2  C   -0.140859
     3  C    0.060488
     4  C    0.060488
     5  C   -0.140859
     6  N   -0.567900
     7  C   -0.170612
     8  C   -0.110643
     9  C   -0.110643
    10  C   -0.170612
    11  H    0.268780
    12  H    0.268593
    13  H    0.117976
    14  H    0.111849
    15  H    0.111849
    16  H    0.117976
    17  H    0.268780
    18  H    0.268593
    19  H    0.075840
    20  H    0.086487
    21  H    0.086487
    22  H    0.075840
 Sum of Mulliken charges =  -0.00000

 Dipole moment (field-independent basis, Debye):
    X=              0.5040    Y=             -0.0000    Z=              0.0000  Tot=              0.5040
 Quadrupole moment (field-independent basis, Debye-Ang):
   XX=            -65.3666   YY=            -59.0632   ZZ=            -57.9178
   XY=             -0.0000   XZ=              0.0000   YZ=             -1.5265

 Summary of Natural Population Analysis:

                                       Natural Population
                Natural  -----------------------------------------------
    Atom  No    Charge         Core      Valence    Rydberg      Total
 -----------------------------------------------------------------------
      N    1   -0.81732      1.99968     5.80353    0.01411     7.81732
      C    2   -0.29919      1.99929     4.28207    0.01783     6.29919
      C    3   -0.06178      1.99897     4.04644    0.01637     6.06178
      C    4   -0.06178      1.99897     4.04644    0.01637     6.06178
      C    5   -0.29919      1.99929     4.28207    0.01783     6.29919
      N    6   -0.81732      1.99968     5.80353    0.01411     7.81732
      C    7   -0.29882      1.99908     4.28119    0.01856     6.29882
      C    8   -0.24634      1.99913     4.22985    0.01735     6.24634
      C    9   -0.24634      1.99913     4.22985    0.01735     6.24634
      C   10   -0.29882      1.99908     4.28119    0.01856     6.29882
      H   11    0.39171      0.00000     0.60500    0.00329     0.60829
      H   12    0.39501      0.00000     0.60155    0.00344     0.60499
      H   13    0.24125      0.00000     0.75620    0.00255     0.75875
      H   14    0.23185      0.00000     0.76568    0.00247     0.76815
      H   15    0.23185      0.00000     0.76568    0.00247     0.76815
      H   16    0.24125      0.00000     0.75620    0.00255     0.75875
      H   17    0.39171      0.00000     0.60500    0.00329     0.60829
      H   18    0.39501      0.00000     0.60155    0.00344     0.60499
      H   19    0.22870      0.00000     0.76954    0.00176     0.77130
      H   20    0.23494      0.00000     0.76360    0.00146     0.76506
      H   21    0.23494      0.00000     0.76360    0.00146     0.76506
      H   22    0.22870      0.00000     0.76954    0.00176     0.77130
 =======================================================================
   * Total *    0.00000     19.99229    53.80933    0.19838    74.00000

 Normal termination of Gaussian 16 at Wed Jul 17 18:49:13 2024.
