 Gaussian 16, Revision A.03,

 -------------------------------------------------------
 # opt=CalcFc B3LYP/6-31G** SCRF=(Solvent=water) scf=xqc
 -------------------------------------------------------

 ----------------------------------
 GKXVJHDEWHKBFH-UHFFFAOYSA-N_conf_2
 ----------------------------------
 Symbolic Z-matrix:
 Charge =  0 Multiplicity = 1

 SCF Done:  E(RB3LYP) =  -421.593774318     A.U. after   12 cycles
 SCF Done:  E(RB3LYP) =  -421.596556569     A.U. after   10 cycles
 SCF Done:  E(RB3LYP) =  -421.596744261     A.U. after   10 cycles
 SCF Done:  E(RB3LYP) =  -421.596751114     A.U. after    8 cycles
 SCF Done:  E(RB3LYP) =  -421.596751748     A.U. after    7 cycles
 SCF Done:  E(RB3LYP) =  -421.596751797     A.U. after    6 cycles
 Optimization completed.
    -- Stationary point found.
 Normal termination of Gaussian 16 at Wed Jul 17 18:46:25 2024.

 ----------------------------------------------------------------------
 # freq B3LYP/6-31G** SCRF=(Solvent=water) volume NMR pop=NPA density=c
 urrent Geom=AllCheck Guess=Read
 ----------------------------------------------------------------------

 Structure from the checkpoint file:  "GKXVJHDEWHKBFH-UHFFFAOYSA-N_conf_2_1.chk"
 ----------------------------------
 GKXVJHDEWHKBFH-UHFFFAOYSA-N_conf_2
 ----------------------------------
 Charge =  0 Multiplicity = 1

 SCF Done:  E(RB3LYP) =  -421.596751797     A.U. after    1 cycles

      1  N    Isotropic =   228.2375   Anisotropy =    49.6364

      2  C    Isotropic =   143.1872   Anisotropy =    20.7422

      3  C    Isotropic =    52.4370   Anisotropy =   183.5684

      4  C    Isotropic =    54.6859   Anisotropy =   176.9654

      5  C    Isotropic =   143.4376   Anisotropy =    20.8175

      6  N    Isotropic =   220.1801   Anisotropy =    45.0712

      7  C    Isotropic =    66.2663   Anisotropy =   148.2110

      8  C    Isotropic =    70.1919   Anisotropy =   165.1764

      9  C    Isotropic =    69.1483   Anisotropy =   166.5089

     10  C    Isotropic =    65.5460   Anisotropy =   149.0560

     11  H    Isotropic =    28.1504   Anisotropy =    17.6624

     12  H    Isotropic =    31.3171   Anisotropy =    15.6529

     13  H    Isotropic =    28.3413   Anisotropy =     7.1305

     14  H    Isotropic =    27.3958   Anisotropy =     5.0960

     15  H    Isotropic =    27.9437   Anisotropy =     8.2541

     16  H    Isotropic =    27.6295   Anisotropy =     4.6524

     17  H    Isotropic =    30.4290   Anisotropy =    15.7097

     18  H    Isotropic =    30.9774   Anisotropy =    11.0992

     19  H    Isotropic =    24.3708   Anisotropy =     6.7993

     20  H    Isotropic =    24.3642   Anisotropy =     4.3627

     21  H    Isotropic =    24.2888   Anisotropy =     4.4120

     22  H    Isotropic =    24.2368   Anisotropy =     7.1025

  Exact polarizability: 155.347   0.825 144.187  12.789   1.020  71.524
 Approx polarizability: 174.798   1.046 169.487  17.080   0.810  85.198

                      1                      2                      3
                      A                      A                      A
 Frequencies --     78.2704               118.9974               125.0033
 Red. masses --      2.8613                 3.5287                 3.7028
 Frc consts  --      0.0103                 0.0294                 0.0341
 IR Inten    --      5.5364                 2.4976                 1.2401

                      4                      5                      6
                      A                      A                      A
 Frequencies --    194.3487               260.4011               292.5714
 Red. masses --      3.9067                 1.3912                 2.5449
 Frc consts  --      0.0869                 0.0556                 0.1283
 IR Inten    --      5.9257                34.9308                14.3169

                      7                      8                      9
                      A                      A                      A
 Frequencies --    338.4936               379.5924               384.9600
 Red. masses --      2.1943                 1.3751                 2.8809
 Frc consts  --      0.1481                 0.1167                 0.2515
 IR Inten    --     11.1662                59.2617                 5.1556

                     10                     11                     12
                      A                      A                      A
 Frequencies --    424.7464               502.0944               518.7959
 Red. masses --      1.7648                 3.7725                 3.9161
 Frc consts  --      0.1876                 0.5603                 0.6210
 IR Inten    --     53.8974                 1.8777                 5.1339

                     13                     14                     15
                      A                      A                      A
 Frequencies --    597.1443               615.0256               734.7678
 Red. masses --      3.8622                 4.1442                 3.2606
 Frc consts  --      0.8114                 0.9236                 1.0372
 IR Inten    --      2.5283                12.4601                 3.9234

                     16                     17                     18
                      A                      A                      A
 Frequencies --    769.6282               780.3861               837.9764
 Red. masses --      4.0473                 1.3532                 3.1887
 Frc consts  --      1.4125                 0.4855                 1.3193
 IR Inten    --      4.1778                88.4950                 2.5656

                     19                     20                     21
                      A                      A                      A
 Frequencies --    880.8410               900.2249               936.1490
 Red. masses --      1.2848                 1.4233                 1.4270
 Frc consts  --      0.5873                 0.6796                 0.7368
 IR Inten    --     59.5956                41.8394               142.2380

                     22                     23                     24
                      A                      A                      A
 Frequencies --    958.7242               995.2043              1001.9635
 Red. masses --      1.3708                 1.2803                 2.2278
 Frc consts  --      0.7423                 0.7471                 1.3177
 IR Inten    --      1.5408                 0.1485                41.7788

                     25                     26                     27
                      A                      A                      A
 Frequencies --   1015.6490              1040.5103              1058.3466
 Red. masses --      3.1592                 2.2463                 1.8329
 Frc consts  --      1.9200                 1.4329                 1.2096
 IR Inten    --     60.5884                12.7035                37.7477

                     28                     29                     30
                      A                      A                      A
 Frequencies --   1087.0544              1125.6715              1168.6129
 Red. masses --      1.7018                 1.8402                 1.3238
 Frc consts  --      1.1848                 1.3738                 1.0651
 IR Inten    --      9.4007                 3.6386                 3.8752

                     31                     32                     33
                      A                      A                      A
 Frequencies --   1185.0182              1192.8692              1215.8587
 Red. masses --      1.0979                 1.2273                 1.8919
 Frc consts  --      0.9084                 1.0289                 1.6478
 IR Inten    --      0.0102                 0.5998                 8.3405

                     34                     35                     36
                      A                      A                      A
 Frequencies --   1242.6283              1301.1244              1324.8110
 Red. masses --      2.2420                 1.4770                 1.4747
 Frc consts  --      2.0397                 1.4732                 1.5250
 IR Inten    --      5.0354                 3.3337                13.9599

                     37                     38                     39
                      A                      A                      A
 Frequencies --   1341.2571              1360.6750              1424.0356
 Red. masses --      1.2575                 2.6969                 1.3875
 Frc consts  --      1.3329                 2.9419                 1.6578
 IR Inten    --      3.9227                 1.6448                30.9535

                     40                     41                     42
                      A                      A                      A
 Frequencies --   1439.0207              1491.0788              1513.1205
 Red. masses --      1.3454                 2.2740                 1.1097
 Frc consts  --      1.6415                 2.9788                 1.4969
 IR Inten    --     42.8823                 3.8558                 2.8412

                     43                     44                     45
                      A                      A                      A
 Frequencies --   1529.9602              1535.5552              1628.1299
 Red. masses --      2.2026                 1.1691                 5.4508
 Frc consts  --      3.0378                 1.6242                 8.5130
 IR Inten    --      6.6374                 0.6821                 1.4872

                     46                     47                     48
                      A                      A                      A
 Frequencies --   1649.0660              1657.7107              1667.7276
 Red. masses --      1.1801                 3.1598                 1.1913
 Frc consts  --      1.8908                 5.1160                 1.9522
 IR Inten    --     32.7176                 6.4036                29.7823

                     49                     50                     51
                      A                      A                      A
 Frequencies --   2967.3941              2997.9076              3062.0379
 Red. masses --      1.0716                 1.0700                 1.0898
 Frc consts  --      5.5597                 5.6660                 6.0203
 IR Inten    --    114.4691               110.6888                75.0173

                     52                     53                     54
                      A                      A                      A
 Frequencies --   3070.7362              3171.5272              3175.3830
 Red. masses --      1.0927                 1.0865                 1.0888
 Frc consts  --      6.0705                 6.4387                 6.4683
 IR Inten    --     42.4120                23.7092                 3.4338

                     55                     56                     57
                      A                      A                      A
 Frequencies --   3189.1150              3203.7291              3390.7738
 Red. masses --      1.0917                 1.0979                 1.0578
 Frc consts  --      6.5419                 6.6391                 7.1654
 IR Inten    --     44.9826                39.2960               137.5677

                     58                     59                     60
                      A                      A                      A
 Frequencies --   3479.5241              3515.4898              3562.2058
 Red. masses --      1.0504                 1.0851                 1.0926
 Frc consts  --      7.4929                 7.9010                 8.1688
 IR Inten    --      1.3750                13.7986                 0.5461

 - Thermochemistry -
 -------------------
 Temperature   298.150 Kelvin.  Pressure   1.00000 Atm.
 Atom     1 has atomic number  7 and mass  14.00307

 Molecular mass:   136.10005 amu.
 Principal axes and moments of inertia in atomic units:
                           1         2         3
     Eigenvalues --   951.388751520.863782251.65132
           X            0.99993  -0.00933   0.00779
           Y            0.00926   0.99992   0.00869
           Z           -0.00787  -0.00862   0.99993
 This molecule is an asymmetric top.
 Rotational symmetry number  1.
 Warning -- assumption of classical behavior for rotation
           may cause significant error
 Rotational temperatures (Kelvin)      0.09104     0.05695     0.03847
 Rotational constants (GHZ):           1.89695     1.18666     0.80152
 Zero-point vibrational energy     506066.0 (Joules/Mol)
                                  120.95267 (Kcal/Mol)
 Warning -- explicit consideration of  14 degrees of freedom as
           vibrations may cause significant error
 Vibrational temperatures:    112.61   171.21   179.85   279.62   374.66
          (Kelvin)            420.94   487.02   546.15   553.87   611.12
                              722.40   746.43   859.16   884.88  1057.17
                             1107.32  1122.80  1205.66  1267.33  1295.22
                             1346.91  1379.39  1431.88  1441.60  1461.29
                             1497.06  1522.72  1564.03  1619.59  1681.37
                             1704.98  1716.27  1749.35  1787.87  1872.03
                             1906.11  1929.77  1957.71  2048.87  2070.43
                             2145.33  2177.04  2201.27  2209.32  2342.52
                             2372.64  2385.08  2399.49  4269.42  4313.32
                             4405.59  4418.10  4563.12  4568.67  4588.43
                             4609.45  4878.57  5006.26  5058.01  5125.22

 Zero-point correction=                           0.192750 (Hartree/Particle)
 Thermal correction to Energy=                    0.202204
 Thermal correction to Enthalpy=                  0.203148
 Thermal correction to Gibbs Free Energy=         0.158363
 Sum of electronic and zero-point Energies=           -421.404001
 Sum of electronic and thermal Energies=              -421.394548
 Sum of electronic and thermal Enthalpies=            -421.393604
 Sum of electronic and thermal Free Energies=         -421.438389

                     E (Thermal)             CV                S
                      KCal/Mol        Cal/Mol-Kelvin    Cal/Mol-Kelvin
 Total                  126.885             36.761             94.259
 Electronic               0.000              0.000              0.000
 Translational            0.889              2.981             40.637
 Rotational               0.889              2.981             29.567
 Vibrational            125.108             30.799             24.056
 Vibration     1          0.600              1.964              3.934
 Vibration     2          0.609              1.933              3.117
 Vibration     3          0.610              1.928              3.022
 Vibration     4          0.635              1.848              2.186
 Vibration     5          0.668              1.745              1.659
 Vibration     6          0.688              1.688              1.459
 Vibration     7          0.719              1.599              1.219
 Vibration     8          0.750              1.514              1.041
 Vibration     9          0.754              1.502              1.020
 Vibration    10          0.787              1.416              0.876
 Vibration    11          0.857              1.245              0.653
 Vibration    12          0.874              1.208              0.613
 Vibration    13          0.955              1.038              0.455
 Vibration    14          0.975              1.000              0.425

 Optimization completed.
    -- Stationary point found.
 Normal termination of Gaussian 16 at Wed Jul 17 18:52:01 2024.
 Gaussian 16:  ES64L-G16RevA.03 25-Dec-2016

 ----------------------------------------------------------------------
 # TD(NStates=10, Root=1) B3LYP/6-31G** SCRF=(Solvent=water) volume pop
 =NPA density=current Geom=AllCheck Guess=Read
 ----------------------------------------------------------------------

 Structure from the checkpoint file:  "GKXVJHDEWHKBFH-UHFFFAOYSA-N_conf_2_2.chk"
 ----------------------------------
 GKXVJHDEWHKBFH-UHFFFAOYSA-N_conf_2
 ----------------------------------
 Charge =  0 Multiplicity = 1

                         Standard orientation:
 ---------------------------------------------------------------------
 Center     Atomic      Atomic             Coordinates (Angstroms)
 Number     Number       Type             X           Y           Z
 ---------------------------------------------------------------------
      1          7           0        1.963197    1.634855   -0.653371
      2          6           0        1.141592    1.511951    0.569072
      3          6           0       -0.116333    0.707035    0.301058
      4          6           0       -0.119014   -0.706957    0.301665
      5          6           0        1.132839   -1.519955    0.571888
      6          7           0        2.075927   -1.455759   -0.565408
      7          6           0       -1.314620   -1.384759    0.028214
      8          6           0       -2.498374   -0.698172   -0.246290
      9          6           0       -2.496309    0.696086   -0.248349
     10          6           0       -1.311921    1.382544    0.024299
     11          1           0        2.266750    0.683992   -0.886805
     12          1           0        2.809924    2.149438   -0.411969
     13          1           0        0.850111    2.518738    0.889158
     14          1           0        1.687834    1.064317    1.415797
     15          1           0        0.831966   -2.548711    0.819721
     16          1           0        1.658075   -1.128067    1.449972
     17          1           0        2.907191   -1.998433   -0.337187
     18          1           0        1.654299   -1.918222   -1.369277
     19          1           0       -1.314884   -2.472100    0.034347
     20          1           0       -3.411652   -1.248484   -0.452920
     21          1           0       -3.408803    1.247439   -0.456302
     22          1           0       -1.311847    2.469791    0.027569
 ---------------------------------------------------------------------

 SCF Done:  E(RB3LYP) =  -421.596751797     A.U. after    1 cycles

 Excitation energies and oscillator strengths:

 Excited State   1:      Singlet-A      5.1129 eV  242.49 nm  f=0.0009  <S**2>=0.000
      37 -> 38         0.69002
      37 -> 39         0.10770
 This state for optimization and/or second-order correction.
 Total Energy, E(TD-HF/TD-DFT) =  -421.408855704
 Copying the excited state density for this state as the 1-particle RhoCI density.

 Excited State   2:      Singlet-A      5.3311 eV  232.57 nm  f=0.0030  <S**2>=0.000
      35 -> 38        -0.23047
      36 -> 39        -0.19403
      37 -> 39         0.62399

 Excited State   3:      Singlet-A      5.3736 eV  230.73 nm  f=0.0001  <S**2>=0.000
      34 -> 38         0.11199
      35 -> 38         0.41106
      35 -> 39         0.11080
      36 -> 38        -0.14342
      36 -> 39         0.41296
      37 -> 38        -0.12423
      37 -> 39         0.30610

 Excited State   4:      Singlet-A      5.7659 eV  215.03 nm  f=0.0189  <S**2>=0.000
      34 -> 38         0.52194
      36 -> 38         0.45133

 Excited State   5:      Singlet-A      5.9777 eV  207.41 nm  f=0.0282  <S**2>=0.000
      34 -> 38         0.30083
      34 -> 39        -0.33480
      35 -> 38        -0.10567
      35 -> 39         0.36949
      36 -> 38        -0.30380
      36 -> 39        -0.23038

 Excited State   6:      Singlet-A      6.0771 eV  204.02 nm  f=0.0842  <S**2>=0.000
      34 -> 38         0.25877
      34 -> 39         0.52222
      35 -> 38        -0.23574
      36 -> 38        -0.26826
      36 -> 39         0.15502

 Excited State   7:      Singlet-A      6.5906 eV  188.12 nm  f=1.1060  <S**2>=0.000
      34 -> 38         0.14859
      34 -> 39         0.26257
      35 -> 38         0.45026
      36 -> 39        -0.43785

 Excited State   8:      Singlet-A      6.6466 eV  186.54 nm  f=0.7343  <S**2>=0.000
      34 -> 38        -0.17691
      34 -> 39         0.18102
      35 -> 39         0.57120
      36 -> 38         0.31661

 Excited State   9:      Singlet-A      7.4515 eV  166.39 nm  f=0.0112  <S**2>=0.000
      34 -> 40        -0.13290
      37 -> 40         0.65957
      37 -> 42         0.13909

 Excited State  10:      Singlet-A      7.4731 eV  165.91 nm  f=0.0043  <S**2>=0.000
      32 -> 38         0.28993
      33 -> 38         0.62627
      33 -> 39        -0.11256

 The electronic state is 1-A.
 Alpha  occ. eigenvalues --  -14.32089 -14.29642 -10.21216 -10.20384 -10.19382
 Alpha  occ. eigenvalues --  -10.19266 -10.18808 -10.18759 -10.18710 -10.18598
 Alpha  occ. eigenvalues --   -0.88926  -0.86602  -0.84267  -0.75583  -0.74850
 Alpha  occ. eigenvalues --   -0.66812  -0.64526  -0.59338  -0.56534  -0.50574
 Alpha  occ. eigenvalues --   -0.48860  -0.47248  -0.46293  -0.44003  -0.43417
 Alpha  occ. eigenvalues --   -0.42345  -0.40328  -0.39684  -0.37956  -0.36862
 Alpha  occ. eigenvalues --   -0.35338  -0.33198  -0.32721  -0.25350  -0.24772
 Alpha  occ. eigenvalues --   -0.24127  -0.22572
 Alpha virt. eigenvalues --   -0.00609  -0.00040   0.08644   0.10369   0.11242
 Alpha virt. eigenvalues --    0.12697   0.13826   0.15181   0.16378   0.16931
 Alpha virt. eigenvalues --    0.17774   0.18353   0.21052   0.21576   0.22304

 Mulliken charges:
               1
     1  N   -0.344816
     2  C   -0.211522
     3  C   -0.005786
     4  C    0.036337
     5  C   -0.159984
     6  N   -0.568158
     7  C   -0.147229
     8  C   -0.190664
     9  C   -0.166301
    10  C   -0.143348
    11  H    0.339169
    12  H    0.327939
    13  H    0.155409
    14  H    0.181211
    15  H    0.105739
    16  H    0.100703
    17  H    0.266131
    18  H    0.270421
    19  H    0.045828
    20  H    0.027760
    21  H    0.034329
    22  H    0.046831
 Sum of Mulliken charges =  -0.00000

 Dipole moment (field-independent basis, Debye):
    X=             11.6320    Y=              1.3782    Z=             -0.2333  Tot=             11.7157
 Quadrupole moment (field-independent basis, Debye-Ang):
   XX=            -52.4276   YY=            -48.2372   ZZ=            -62.0657
   XY=              3.4750   XZ=             -0.9668   YZ=              2.0426

 Summary of Natural Population Analysis:

                                       Natural Population
                Natural  -----------------------------------------------
    Atom  No    Charge         Core      Valence    Rydberg      Total
 -----------------------------------------------------------------------
      N    1   -0.43256      1.99941     5.42774    0.00541     7.43256
      C    2   -0.32117      1.99921     4.30644    0.01552     6.32117
      C    3   -0.23306      1.99897     4.21555    0.01854     6.23306
      C    4   -0.17574      1.99898     4.15838    0.01837     6.17574
      C    5   -0.28205      1.99928     4.26654    0.01623     6.28205
      N    6   -0.85629      1.99960     5.84165    0.01504     7.85629
      C    7   -0.22878      1.99906     4.21635    0.01337     6.22878
      C    8   -0.39431      1.99911     4.37688    0.01832     6.39431
      C    9   -0.35175      1.99911     4.33557    0.01707     6.35175
      C   10   -0.23263      1.99907     4.22004    0.01352     6.23263
      H   11    0.42967      0.00000     0.56705    0.00328     0.57033
      H   12    0.41192      0.00000     0.58382    0.00426     0.58808
      H   13    0.26342      0.00000     0.73463    0.00195     0.73658
      H   14    0.28970      0.00000     0.70904    0.00127     0.71030
      H   15    0.23320      0.00000     0.76453    0.00226     0.76680
      H   16    0.21966      0.00000     0.77721    0.00313     0.78034
      H   17    0.39870      0.00000     0.59675    0.00455     0.60130
      H   18    0.40387      0.00000     0.59173    0.00440     0.59613
      H   19    0.21624      0.00000     0.78210    0.00166     0.78376
      H   20    0.21119      0.00000     0.78760    0.00121     0.78881
      H   21    0.21435      0.00000     0.78437    0.00128     0.78565
      H   22    0.21633      0.00000     0.78203    0.00163     0.78367
 =======================================================================
   * Total *   -0.00009     19.99180    53.82602    0.18227    74.00009

 Normal termination of Gaussian 16 at Wed Jul 17 18:58:47 2024.
