 Gaussian 16, Revision A.03,

 -------------------------------------------------------
 # opt=CalcFc B3LYP/6-31G** SCRF=(Solvent=water) scf=xqc
 -------------------------------------------------------

 ----------------------------------
 GKXVJHDEWHKBFH-UHFFFAOYSA-N_conf_1
 ----------------------------------
 Symbolic Z-matrix:
 Charge =  0 Multiplicity = 1

 SCF Done:  E(RB3LYP) =  -421.588774830     A.U. after   12 cycles
 SCF Done:  E(RB3LYP) =  -421.592141330     A.U. after   10 cycles
 SCF Done:  E(RB3LYP) =  -421.592541451     A.U. after   11 cycles
 SCF Done:  E(RB3LYP) =  -421.592564682     A.U. after   10 cycles
 SCF Done:  E(RB3LYP) =  -421.592627469     A.U. after   10 cycles
 SCF Done:  E(RB3LYP) =  -421.592630410     A.U. after    7 cycles
 SCF Done:  E(RB3LYP) =  -421.592630489     A.U. after    7 cycles
 Optimization completed.
    -- Stationary point found.
 Normal termination of Gaussian 16 at Wed Jul 17 18:40:32 2024.

 ----------------------------------------------------------------------
 # freq B3LYP/6-31G** SCRF=(Solvent=water) volume NMR pop=NPA density=c
 urrent Geom=AllCheck Guess=Read
 ----------------------------------------------------------------------

 Structure from the checkpoint file:  "GKXVJHDEWHKBFH-UHFFFAOYSA-N_conf_1_1.chk"
 ----------------------------------
 GKXVJHDEWHKBFH-UHFFFAOYSA-N_conf_1
 ----------------------------------
 Charge =  0 Multiplicity = 1

 SCF Done:  E(RB3LYP) =  -421.592630489     A.U. after    1 cycles

      1  N    Isotropic =   231.7307   Anisotropy =    49.5873

      2  C    Isotropic =   146.2302   Anisotropy =    21.6694

      3  C    Isotropic =    57.0020   Anisotropy =   175.4758

      4  C    Isotropic =    54.8481   Anisotropy =   171.2018

      5  C    Isotropic =   147.3906   Anisotropy =    30.8195

      6  N    Isotropic =   238.1773   Anisotropy =    34.5828

      7  C    Isotropic =    72.0064   Anisotropy =   173.9157

      8  C    Isotropic =    69.8544   Anisotropy =   166.6191

      9  C    Isotropic =    70.9146   Anisotropy =   164.3070

     10  C    Isotropic =    65.7731   Anisotropy =   152.4631

     11  H    Isotropic =    31.3784   Anisotropy =    10.5799

     12  H    Isotropic =    31.0151   Anisotropy =    16.2873

     13  H    Isotropic =    28.3901   Anisotropy =     6.9113

     14  H    Isotropic =    27.6864   Anisotropy =     5.4772

     15  H    Isotropic =    27.7755   Anisotropy =     6.1699

     16  H    Isotropic =    27.4389   Anisotropy =    10.1050

     17  H    Isotropic =    30.7580   Anisotropy =    15.1834

     18  H    Isotropic =    31.4204   Anisotropy =    12.3617

     19  H    Isotropic =    23.7101   Anisotropy =     9.8432

     20  H    Isotropic =    24.2858   Anisotropy =     4.5963

     21  H    Isotropic =    24.3570   Anisotropy =     4.3000

     22  H    Isotropic =    24.2840   Anisotropy =     7.2549

  Exact polarizability: 145.487   1.302 152.324  -5.414  10.894  70.029
 Approx polarizability: 170.094   0.219 173.626  -6.018  14.329  83.239

                      1                      2                      3
                      A                      A                      A
 Frequencies --     51.3554                89.9089               126.2614
 Red. masses --      3.1117                 2.9268                 3.0931
 Frc consts  --      0.0048                 0.0139                 0.0291
 IR Inten    --      5.0412                 2.9007                 0.8921

                      4                      5                      6
                      A                      A                      A
 Frequencies --    189.5376               223.2448               257.1739
 Red. masses --      1.9433                 1.9447                 1.5389
 Frc consts  --      0.0411                 0.0571                 0.0600
 IR Inten    --     30.1007                 8.4998                57.9056

                      7                      8                      9
                      A                      A                      A
 Frequencies --    282.6501               335.9092               355.8319
 Red. masses --      1.3868                 2.6249                 3.2926
 Frc consts  --      0.0653                 0.1745                 0.2456
 IR Inten    --     59.8211                13.6041                12.4788

                     10                     11                     12
                      A                      A                      A
 Frequencies --    468.7410               474.9146               501.3519
 Red. masses --      3.0576                 3.5757                 3.7214
 Frc consts  --      0.3958                 0.4752                 0.5511
 IR Inten    --      3.6142                 3.6964                 8.1453

                     13                     14                     15
                      A                      A                      A
 Frequencies --    584.7091               609.7396               744.5804
 Red. masses --      3.9243                 4.7640                 2.3284
 Frc consts  --      0.7905                 1.0435                 0.7606
 IR Inten    --     13.5125                 1.5539                13.2649

                     16                     17                     18
                      A                      A                      A
 Frequencies --    749.5184               783.7909               822.7996
 Red. masses --      3.3119                 1.5948                 3.6657
 Frc consts  --      1.0962                 0.5772                 1.4622
 IR Inten    --      9.3324                59.4325                12.8614

                     19                     20                     21
                      A                      A                      A
 Frequencies --    880.9455               882.7717               901.3323
 Red. masses --      1.2733                 1.2971                 1.3815
 Frc consts  --      0.5822                 0.5956                 0.6613
 IR Inten    --    127.7697               111.5597                70.2457

                     22                     23                     24
                      A                      A                      A
 Frequencies --    960.6047               998.3435              1003.1569
 Red. masses --      1.3688                 1.2868                 2.2727
 Frc consts  --      0.7442                 0.7557                 1.3475
 IR Inten    --     12.5468                 6.4751                45.4596

                     25                     26                     27
                      A                      A                      A
 Frequencies --   1018.2824              1043.7948              1065.9002
 Red. masses --      1.7733                 2.1476                 2.9311
 Frc consts  --      1.0834                 1.3786                 1.9621
 IR Inten    --     31.4588                18.7740                 9.6402

                     28                     29                     30
                      A                      A                      A
 Frequencies --   1078.0782              1120.0449              1174.9889
 Red. masses --      1.8967                 2.0326                 1.2253
 Frc consts  --      1.2988                 1.5023                 0.9967
 IR Inten    --      0.8944                 1.3751                 1.6726

                     31                     32                     33
                      A                      A                      A
 Frequencies --   1178.9263              1183.6168              1204.3734
 Red. masses --      1.3079                 1.1136                 1.8464
 Frc consts  --      1.0710                 0.9192                 1.5780
 IR Inten    --     10.5419                 0.3390                 4.5872

                     34                     35                     36
                      A                      A                      A
 Frequencies --   1240.6586              1293.1111              1307.9806
 Red. masses --      2.3239                 1.4211                 1.5757
 Frc consts  --      2.1076                 1.4000                 1.5882
 IR Inten    --      5.8709                 1.3904                 9.8870

                     37                     38                     39
                      A                      A                      A
 Frequencies --   1342.6419              1361.8353              1426.9704
 Red. masses --      1.3002                 2.4395                 1.4661
 Frc consts  --      1.3810                 2.6656                 1.7590
 IR Inten    --      0.1277                 1.8231                34.2912

                     40                     41                     42
                      A                      A                      A
 Frequencies --   1427.7875              1490.4774              1505.2444
 Red. masses --      1.3868                 2.1426                 1.1378
 Frc consts  --      1.6656                 2.8043                 1.5189
 IR Inten    --     41.0725                15.2970                 2.4271

                     43                     44                     45
                      A                      A                      A
 Frequencies --   1527.6081              1534.1791              1630.3463
 Red. masses --      2.4634                 1.0964                 5.8073
 Frc consts  --      3.3870                 1.5205                 9.0946
 IR Inten    --     14.0215                 3.0703                 0.2682

                     46                     47                     48
                      A                      A                      A
 Frequencies --   1649.3123              1654.4272              1661.2727
 Red. masses --      1.3787                 1.1593                 2.4083
 Frc consts  --      2.2096                 1.8696                 3.9160
 IR Inten    --     22.2839                59.3187                 4.2040

                     49                     50                     51
                      A                      A                      A
 Frequencies --   2975.0812              3003.2005              3034.9094
 Red. masses --      1.0711                 1.0692                 1.0899
 Frc consts  --      5.5859                 5.6816                 5.9147
 IR Inten    --    101.0318               106.7162                43.2923

                     52                     53                     54
                      A                      A                      A
 Frequencies --   3066.3180              3172.5826              3182.4586
 Red. masses --      1.0934                 1.0866                 1.0893
 Frc consts  --      6.0573                 6.4438                 6.5002
 IR Inten    --     52.7194                 8.6558                28.3826

                     55                     56                     57
                      A                      A                      A
 Frequencies --   3198.9284              3215.3903              3469.5833
 Red. masses --      1.0957                 1.0923                 1.0505
 Frc consts  --      6.6060                 6.6536                 7.4506
 IR Inten    --     43.2590                15.9809                 2.9601

                     58                     59                     60
                      A                      A                      A
 Frequencies --   3488.0811              3550.9970              3569.5720
 Red. masses --      1.0512                 1.0919                 1.0917
 Frc consts  --      7.5356                 8.1122                 8.1957
 IR Inten    --      0.2044                 0.4798                 0.4674

 - Thermochemistry -
 -------------------
 Temperature   298.150 Kelvin.  Pressure   1.00000 Atm.
 Atom     1 has atomic number  7 and mass  14.00307

 Molecular mass:   136.10005 amu.
 Principal axes and moments of inertia in atomic units:
                           1         2         3
     Eigenvalues --  1272.824621321.396452430.95119
           X            0.99662   0.08162  -0.00905
           Y           -0.08157   0.99665   0.00556
           Z            0.00947  -0.00480   0.99994
 This molecule is an asymmetric top.
 Rotational symmetry number  1.
 Warning -- assumption of classical behavior for rotation
           may cause significant error
 Rotational temperatures (Kelvin)      0.06805     0.06555     0.03563
 Rotational constants (GHZ):           1.41790     1.36578     0.74240
 Zero-point vibrational energy     504394.3 (Joules/Mol)
                                  120.55312 (Kcal/Mol)
 Warning -- explicit consideration of  14 degrees of freedom as
           vibrations may cause significant error
 Vibrational temperatures:     73.89   129.36   181.66   272.70   321.20
          (Kelvin)            370.02   406.67   483.30   511.96   674.41
                              683.30   721.33   841.27   877.28  1071.29
                             1078.39  1127.70  1183.83  1267.48  1270.11
                             1296.82  1382.10  1436.39  1443.32  1465.08
                             1501.79  1533.59  1551.11  1611.49  1690.55
                             1696.21  1702.96  1732.82  1785.03  1860.50
                             1881.89  1931.76  1959.38  2053.09  2054.27
                             2144.46  2165.71  2197.89  2207.34  2345.70
                             2372.99  2380.35  2390.20  4280.48  4320.94
                             4366.56  4411.75  4564.64  4578.85  4602.54
                             4626.23  4991.96  5018.57  5109.09  5135.82

 Zero-point correction=                           0.192114 (Hartree/Particle)
 Thermal correction to Energy=                    0.201953
 Thermal correction to Enthalpy=                  0.202897
 Thermal correction to Gibbs Free Energy=         0.156784
 Sum of electronic and zero-point Energies=           -421.400517
 Sum of electronic and thermal Energies=              -421.390678
 Sum of electronic and thermal Enthalpies=            -421.389734
 Sum of electronic and thermal Free Energies=         -421.435846

                     E (Thermal)             CV                S
                      KCal/Mol        Cal/Mol-Kelvin    Cal/Mol-Kelvin
 Total                  126.727             37.354             97.052
 Electronic               0.000              0.000              0.000
 Translational            0.889              2.981             40.637
 Rotational               0.889              2.981             29.793
 Vibrational            124.950             31.392             26.622
 Vibration     1          0.596              1.977              4.764
 Vibration     2          0.602              1.956              3.662
 Vibration     3          0.611              1.927              3.002
 Vibration     4          0.633              1.854              2.232
 Vibration     5          0.649              1.806              1.933
 Vibration     6          0.667              1.751              1.681
 Vibration     7          0.682              1.706              1.518
 Vibration     8          0.717              1.604              1.232
 Vibration     9          0.731              1.563              1.140
 Vibration    10          0.826              1.319              0.741
 Vibration    11          0.832              1.306              0.724
 Vibration    12          0.857              1.247              0.655
 Vibration    13          0.942              1.064              0.477
 Vibration    14          0.969              1.011              0.433

 Optimization completed.
    -- Stationary point found.
 Normal termination of Gaussian 16 at Wed Jul 17 18:45:57 2024.
 Gaussian 16:  ES64L-G16RevA.03 25-Dec-2016

 ----------------------------------------------------------------------
 # TD(NStates=10, Root=1) B3LYP/6-31G** SCRF=(Solvent=water) volume pop
 =NPA density=current Geom=AllCheck Guess=Read
 ----------------------------------------------------------------------

 Structure from the checkpoint file:  "GKXVJHDEWHKBFH-UHFFFAOYSA-N_conf_1_2.chk"
 ----------------------------------
 GKXVJHDEWHKBFH-UHFFFAOYSA-N_conf_1
 ----------------------------------
 Charge =  0 Multiplicity = 1

                         Standard orientation:
 ---------------------------------------------------------------------
 Center     Atomic      Atomic             Coordinates (Angstroms)
 Number     Number       Type             X           Y           Z
 ---------------------------------------------------------------------
      1          7           0       -1.788920    2.142694   -0.764350
      2          6           0       -1.382734    1.521105    0.514732
      3          6           0       -0.792061    0.142707    0.282235
      4          6           0        0.598882   -0.065974    0.159471
      5          6           0        1.577395    1.094783    0.293726
      6          7           0        2.937968    0.744142   -0.130216
      7          6           0        1.071455   -1.364469   -0.070745
      8          6           0        0.195246   -2.444180   -0.192681
      9          6           0       -1.179616   -2.238327   -0.080039
     10          6           0       -1.659202   -0.949963    0.156879
     11          1           0       -0.962556    2.264018   -1.348563
     12          1           0       -2.123308    3.086607   -0.573777
     13          1           0       -2.285638    1.419463    1.127233
     14          1           0       -0.683719    2.138426    1.097491
     15          1           0        1.631798    1.395476    1.348927
     16          1           0        1.172814    1.967834   -0.242587
     17          1           0        3.549954    1.534596    0.058782
     18          1           0        2.952554    0.622099   -1.141448
     19          1           0        2.142057   -1.517442   -0.151195
     20          1           0        0.587742   -3.441201   -0.372657
     21          1           0       -1.871861   -3.070343   -0.171613
     22          1           0       -2.729363   -0.781478    0.249891
 ---------------------------------------------------------------------

 SCF Done:  E(RB3LYP) =  -421.592630489     A.U. after    1 cycles

 Excitation energies and oscillator strengths:

 Excited State   1:      Singlet-A      5.2784 eV  234.89 nm  f=0.0045  <S**2>=0.000
      34 -> 38        -0.12857
      35 -> 38         0.22684
      35 -> 39         0.22702
      36 -> 38        -0.29109
      36 -> 39        -0.13961
      37 -> 38         0.39598
      37 -> 39        -0.33434
 This state for optimization and/or second-order correction.
 Total Energy, E(TD-HF/TD-DFT) =  -421.398652715
 Copying the excited state density for this state as the 1-particle RhoCI density.

 Excited State   2:      Singlet-A      5.5084 eV  225.08 nm  f=0.0025  <S**2>=0.000
      35 -> 38         0.30414
      36 -> 38         0.60214
      37 -> 38         0.17599

 Excited State   3:      Singlet-A      5.5940 eV  221.64 nm  f=0.0242  <S**2>=0.000
      34 -> 38         0.36952
      35 -> 38        -0.13034
      37 -> 38         0.46901
      37 -> 39         0.34851

 Excited State   4:      Singlet-A      5.8321 eV  212.59 nm  f=0.0360  <S**2>=0.000
      34 -> 38         0.27251
      34 -> 39        -0.30639
      36 -> 39         0.46352
      37 -> 39        -0.33080

 Excited State   5:      Singlet-A      5.8684 eV  211.28 nm  f=0.0274  <S**2>=0.000
      34 -> 38        -0.17513
      34 -> 39         0.26258
      35 -> 38         0.13047
      35 -> 39         0.34099
      36 -> 39         0.45731
      37 -> 39         0.23243

 Excited State   6:      Singlet-A      6.0399 eV  205.27 nm  f=0.1121  <S**2>=0.000
      34 -> 38         0.36885
      34 -> 39         0.32367
      35 -> 38         0.40882
      35 -> 39        -0.19232
      36 -> 38        -0.11459
      37 -> 38        -0.18956

 Excited State   7:      Singlet-A      6.5894 eV  188.16 nm  f=0.9665  <S**2>=0.000
      34 -> 38         0.15213
      34 -> 39         0.41456
      35 -> 38        -0.38234
      35 -> 39         0.14295
      36 -> 38         0.18074
      37 -> 39        -0.30720

 Excited State   8:      Singlet-A      6.6298 eV  187.01 nm  f=0.7083  <S**2>=0.000
      34 -> 38         0.27614
      34 -> 39        -0.21408
      35 -> 39         0.51533
      36 -> 39        -0.21859
      37 -> 38        -0.21501

 Excited State   9:      Singlet-A      7.4532 eV  166.35 nm  f=0.0381  <S**2>=0.000
      34 -> 40         0.23765
      34 -> 41         0.16762
      37 -> 40         0.59119
      37 -> 41         0.21972

 Excited State  10:      Singlet-A      7.5194 eV  164.89 nm  f=0.0047  <S**2>=0.000
      32 -> 38         0.48683
      35 -> 40        -0.14200
      36 -> 40        -0.43514
      36 -> 41         0.16399

 The electronic state is 1-A.
 Alpha  occ. eigenvalues --  -14.31553 -14.31368 -10.21299 -10.20879 -10.19382
 Alpha  occ. eigenvalues --  -10.19106 -10.18579 -10.18516 -10.18465 -10.18085
 Alpha  occ. eigenvalues --   -0.88827  -0.87708  -0.84181  -0.75662  -0.74451
 Alpha  occ. eigenvalues --   -0.66875  -0.65050  -0.58700  -0.56793  -0.50710
 Alpha  occ. eigenvalues --   -0.48590  -0.47461  -0.47024  -0.43954  -0.43171
 Alpha  occ. eigenvalues --   -0.42095  -0.40724  -0.39971  -0.38323  -0.37686
 Alpha  occ. eigenvalues --   -0.34898  -0.33052  -0.32915  -0.24888  -0.24610
 Alpha  occ. eigenvalues --   -0.23889  -0.23295
 Alpha virt. eigenvalues --   -0.00470   0.00344   0.07967   0.09824   0.10772
 Alpha virt. eigenvalues --    0.12635   0.13993   0.14914   0.15882   0.16655
 Alpha virt. eigenvalues --    0.18149   0.18506   0.20309   0.20601   0.21950

 Mulliken charges:
               1
     1  N   -0.605003
     2  C   -0.134527
     3  C    0.056397
     4  C    0.063874
     5  C   -0.114902
     6  N   -0.615842
     7  C   -0.131458
     8  C   -0.133648
     9  C   -0.093119
    10  C   -0.148546
    11  H    0.248575
    12  H    0.246866
    13  H    0.104201
    14  H    0.095065
    15  H    0.143065
    16  H    0.123724
    17  H    0.270007
    18  H    0.267947
    19  H    0.093961
    20  H    0.084497
    21  H    0.095692
    22  H    0.083175
 Sum of Mulliken charges =  -0.00000

 Dipole moment (field-independent basis, Debye):
    X=              2.2743    Y=              3.9813    Z=             -0.2449  Tot=              4.5916
 Quadrupole moment (field-independent basis, Debye-Ang):
   XX=            -58.2327   YY=            -50.2147   ZZ=            -61.6469
   XY=              5.8873   XZ=             -5.7629   YZ=              0.8185

 Summary of Natural Population Analysis:

                                       Natural Population
                Natural  -----------------------------------------------
    Atom  No    Charge         Core      Valence    Rydberg      Total
 -----------------------------------------------------------------------
      N    1   -0.89428      1.99966     5.87959    0.01503     7.89428
      C    2   -0.29238      1.99930     4.27689    0.01619     6.29238
      C    3   -0.08596      1.99900     4.06839    0.01856     6.08596
      C    4   -0.01548      1.99899     3.99992    0.01657     6.01548
      C    5   -0.29032      1.99929     4.27754    0.01349     6.29032
      N    6   -0.87881      1.99964     5.86522    0.01394     7.87881
      C    7   -0.24419      1.99908     4.22749    0.01761     6.24419
      C    8   -0.29232      1.99915     4.27461    0.01856     6.29232
      C    9   -0.20786      1.99913     4.19183    0.01690     6.20786
      C   10   -0.25770      1.99908     4.24057    0.01805     6.25770
      H   11    0.38203      0.00000     0.61402    0.00395     0.61797
      H   12    0.38404      0.00000     0.61144    0.00451     0.61596
      H   13    0.23475      0.00000     0.76213    0.00312     0.76525
      H   14    0.21745      0.00000     0.77993    0.00263     0.78255
      H   15    0.25610      0.00000     0.74116    0.00274     0.74390
      H   16    0.23879      0.00000     0.75741    0.00380     0.76121
      H   17    0.40352      0.00000     0.59391    0.00256     0.59648
      H   18    0.39666      0.00000     0.60010    0.00324     0.60334
      H   19    0.24242      0.00000     0.75523    0.00235     0.75758
      H   20    0.23416      0.00000     0.76439    0.00145     0.76584
      H   21    0.23689      0.00000     0.76165    0.00146     0.76311
      H   22    0.23249      0.00000     0.76571    0.00180     0.76751
 =======================================================================
   * Total *   -0.00000     19.99233    53.80914    0.19853    74.00000

 Normal termination of Gaussian 16 at Wed Jul 17 18:52:52 2024.
