 Gaussian 16, Revision A.03,

 -------------------------------------------------------
 # opt=CalcFc B3LYP/6-31G** SCRF=(Solvent=water) scf=xqc
 -------------------------------------------------------

 ----------------------------------
 NAQMVNRVTILPCV-UHFFFAOYSA-N_conf_2
 ----------------------------------
 Symbolic Z-matrix:
 Charge =  0 Multiplicity = 1

 SCF Done:  E(RB3LYP) =  -347.798841908     A.U. after   11 cycles
 SCF Done:  E(RB3LYP) =  -347.802009008     A.U. after    9 cycles
 SCF Done:  E(RB3LYP) =  -347.802110388     A.U. after    9 cycles
 SCF Done:  E(RB3LYP) =  -347.802114248     A.U. after    7 cycles
 SCF Done:  E(RB3LYP) =  -347.802114269     A.U. after    6 cycles
 Optimization completed.
    -- Stationary point found.
 Normal termination of Gaussian 16 at Tue Jul  9 18:18:20 2024.

 ----------------------------------------------------------------------
 # freq B3LYP/6-31G** SCRF=(Solvent=water) volume NMR pop=NPA density=c
 urrent Geom=AllCheck Guess=Read
 ----------------------------------------------------------------------

 Structure from the checkpoint file:  "NAQMVNRVTILPCV-UHFFFAOYSA-N_conf_2_1.chk"
 ----------------------------------
 NAQMVNRVTILPCV-UHFFFAOYSA-N_conf_2
 ----------------------------------
 Charge =  0 Multiplicity = 1

 SCF Done:  E(RB3LYP) =  -347.802114269     A.U. after    1 cycles

      1  N    Isotropic =   230.2567   Anisotropy =    27.6765

      2  C    Isotropic =   146.1005   Anisotropy =    39.9707

      3  C    Isotropic =   151.5082   Anisotropy =    41.4212

      4  C    Isotropic =   164.7069   Anisotropy =    21.4330

      5  C    Isotropic =   165.5281   Anisotropy =    29.0476

      6  C    Isotropic =   156.7787   Anisotropy =    15.4202

      7  C    Isotropic =   151.0967   Anisotropy =    35.0269

      8  N    Isotropic =   240.4660   Anisotropy =    46.8535

      9  H    Isotropic =    31.4090   Anisotropy =    12.4547

     10  H    Isotropic =    31.4014   Anisotropy =    12.3433

     11  H    Isotropic =    29.2840   Anisotropy =     5.5227

     12  H    Isotropic =    29.2748   Anisotropy =     5.4190

     13  H    Isotropic =    30.4721   Anisotropy =     4.3991

     14  H    Isotropic =    30.4792   Anisotropy =     4.1674

     15  H    Isotropic =    30.2699   Anisotropy =     5.2684

     16  H    Isotropic =    30.8736   Anisotropy =     5.9961

     17  H    Isotropic =    30.5488   Anisotropy =     7.5910

     18  H    Isotropic =    30.1431   Anisotropy =     5.1260

     19  H    Isotropic =    30.4251   Anisotropy =     8.5981

     20  H    Isotropic =    30.3956   Anisotropy =     7.3933

     21  H    Isotropic =    29.1116   Anisotropy =     6.0391

     22  H    Isotropic =    29.2151   Anisotropy =     8.7797

     23  H    Isotropic =    30.8678   Anisotropy =    11.7253

     24  H    Isotropic =    32.0429   Anisotropy =    14.3181

  Exact polarizability: 109.112   0.706  96.199   1.949   2.849  95.971
 Approx polarizability: 107.859  -0.057 106.206   1.241   3.383 104.765

                      1                      2                      3
                      A                      A                      A
 Frequencies --     43.3487                53.2710                96.4024
 Red. masses --      2.8096                 2.1591                 2.4000
 Frc consts  --      0.0031                 0.0036                 0.0131
 IR Inten    --      1.0451                 0.6191                 3.4420

                      4                      5                      6
                      A                      A                      A
 Frequencies --    114.3670               144.4290               194.2016
 Red. masses --      2.7846                 1.9367                 1.8786
 Frc consts  --      0.0215                 0.0238                 0.0417
 IR Inten    --      0.6101                 0.5205                13.3634

                      7                      8                      9
                      A                      A                      A
 Frequencies --    243.2060               295.6225               299.3281
 Red. masses --      2.6888                 1.2799                 1.1267
 Frc consts  --      0.0937                 0.0659                 0.0595
 IR Inten    --      2.0725                65.2354                61.7109

                     10                     11                     12
                      A                      A                      A
 Frequencies --    351.1993               368.7149               457.2301
 Red. masses --      2.5676                 2.5586                 2.1838
 Frc consts  --      0.1866                 0.2049                 0.2690
 IR Inten    --      9.5014                 6.5348                 8.6282

                     13                     14                     15
                      A                      A                      A
 Frequencies --    523.6793               728.3810               753.7822
 Red. masses --      2.2747                 1.1344                 1.1600
 Frc consts  --      0.3675                 0.3546                 0.3883
 IR Inten    --      4.4920                11.3959                 1.9253

                     16                     17                     18
                      A                      A                      A
 Frequencies --    805.5424               830.3861               903.9348
 Red. masses --      1.3988                 2.2296                 1.9359
 Frc consts  --      0.5348                 0.9058                 0.9320
 IR Inten    --     20.0904                27.9231               128.8290

                     19                     20                     21
                      A                      A                      A
 Frequencies --    913.1326               921.1042               941.0402
 Red. masses --      1.4302                 1.5157                 1.6095
 Frc consts  --      0.7026                 0.7577                 0.8397
 IR Inten    --     51.5990                88.5596               188.0644

                     22                     23                     24
                      A                      A                      A
 Frequencies --   1021.5348              1031.5203              1043.9597
 Red. masses --      1.6621                 1.8595                 2.5850
 Frc consts  --      1.0219                 1.1657                 1.6599
 IR Inten    --      1.8511                43.1306                 6.1399

                     25                     26                     27
                      A                      A                      A
 Frequencies --   1060.4114              1077.8141              1095.9729
 Red. masses --      1.9691                 1.4818                 2.5925
 Frc consts  --      1.3046                 1.0142                 1.8347
 IR Inten    --     24.3964                15.9817                 9.2961

                     28                     29                     30
                      A                      A                      A
 Frequencies --   1105.2416              1161.3935              1176.6743
 Red. masses --      1.8261                 1.8319                 1.4978
 Frc consts  --      1.3143                 1.4559                 1.2218
 IR Inten    --     10.7965                12.7493                 6.8648

                     31                     32                     33
                      A                      A                      A
 Frequencies --   1258.0449              1272.3990              1307.4587
 Red. masses --      1.4522                 1.3174                 1.2744
 Frc consts  --      1.3541                 1.2567                 1.2836
 IR Inten    --      2.7710                 4.4545                 5.0067

                     34                     35                     36
                      A                      A                      A
 Frequencies --   1329.8339              1335.2866              1355.6801
 Red. masses --      1.1923                 1.0613                 1.3106
 Frc consts  --      1.2423                 1.1149                 1.4192
 IR Inten    --      2.0891                 0.4335                 2.1280

                     37                     38                     39
                      A                      A                      A
 Frequencies --   1380.7000              1393.5343              1396.8788
 Red. masses --      1.3808                 1.3025                 1.1784
 Frc consts  --      1.5509                 1.4902                 1.3547
 IR Inten    --      0.1178                26.0356                 0.9274

                     40                     41                     42
                      A                      A                      A
 Frequencies --   1403.5635              1407.5358              1413.3006
 Red. masses --      1.2334                 1.3870                 1.5486
 Frc consts  --      1.4316                 1.6189                 1.8225
 IR Inten    --      5.3024                 8.9909                 1.5964

                     43                     44                     45
                      A                      A                      A
 Frequencies --   1484.4465              1486.8090              1493.3021
 Red. masses --      1.0788                 1.0874                 1.0847
 Frc consts  --      1.4006                 1.4163                 1.4252
 IR Inten    --      0.5541                 3.6156                 1.3853

                     46                     47                     48
                      A                      A                      A
 Frequencies --   1500.9621              1505.4980              1518.0559
 Red. masses --      1.0893                 1.0933                 1.0984
 Frc consts  --      1.4458                 1.4599                 1.4913
 IR Inten    --      1.3415                 1.4624                 3.5366

                     49                     50                     51
                      A                      A                      A
 Frequencies --   1660.0259              1660.8456              3007.3783
 Red. masses --      1.0879                 1.0869                 1.0587
 Frc consts  --      1.7663                 1.7664                 5.6418
 IR Inten    --     29.5638                32.2657                18.3714

                     52                     53                     54
                      A                      A                      A
 Frequencies --   3009.5954              3014.2544              3020.4152
 Red. masses --      1.0600                 1.0615                 1.0627
 Frc consts  --      5.6566                 5.6821                 5.7122
 IR Inten    --     27.5519                18.5300                75.4164

                     55                     56                     57
                      A                      A                      A
 Frequencies --   3026.0702              3033.7942              3037.1489
 Red. masses --      1.0598                 1.0843                 1.0789
 Frc consts  --      5.7178                 5.8798                 5.8635
 IR Inten    --    136.6985                 9.5896                35.0320

                     58                     59                     60
                      A                      A                      A
 Frequencies --   3045.6663              3050.7768              3062.8245
 Red. masses --      1.0993                 1.0989                 1.1050
 Frc consts  --      6.0078                 6.0263                 6.1076
 IR Inten    --     11.7643                93.3431                30.8250

                     61                     62                     63
                      A                      A                      A
 Frequencies --   3071.9881              3077.0198              3468.6081
 Red. masses --      1.1065                 1.1039                 1.0502
 Frc consts  --      6.1525                 6.1581                 7.4445
 IR Inten    --    232.9570               113.0334                 1.6558

                     64                     65                     66
                      A                      A                      A
 Frequencies --   3474.4092              3545.2893              3554.9458
 Red. masses --      1.0503                 1.0914                 1.0913
 Frc consts  --      7.4703                 8.0824                 8.1256
 IR Inten    --      1.4602                 0.2714                 0.1694

 - Thermochemistry -
 -------------------
 Temperature   298.150 Kelvin.  Pressure   1.00000 Atm.
 Atom     1 has atomic number  7 and mass  14.00307

 Molecular mass:   116.13135 amu.
 Principal axes and moments of inertia in atomic units:
                           1         2         3
     Eigenvalues --   368.933022911.452313027.73126
           X            0.99999   0.00329   0.00271
           Y           -0.00333   0.99992   0.01242
           Z           -0.00267  -0.01243   0.99992
 This molecule is an asymmetric top.
 Rotational symmetry number  1.
 Rotational temperatures (Kelvin)      0.23477     0.02975     0.02861
 Rotational constants (GHZ):           4.89179     0.61988     0.59607
 Zero-point vibrational energy     591081.9 (Joules/Mol)
                                  141.27196 (Kcal/Mol)
 Warning -- explicit consideration of  13 degrees of freedom as
           vibrations may cause significant error
 Vibrational temperatures:     62.37    76.65   138.70   164.55   207.80
          (Kelvin)            279.41   349.92   425.33   430.67   505.30
                              530.50   657.85   753.46  1047.98  1084.52
                             1159.00  1194.74  1300.56  1313.79  1325.26
                             1353.95  1469.76  1484.13  1502.03  1525.70
                             1550.73  1576.86  1590.20  1670.99  1692.97
                             1810.05  1830.70  1881.14  1913.33  1921.18
                             1950.52  1986.52  2004.99  2009.80  2019.41
                             2025.13  2033.42  2135.79  2139.19  2148.53
                             2159.55  2166.08  2184.14  2388.41  2389.59
                             4326.95  4330.14  4336.84  4345.70  4353.84
                             4364.95  4369.78  4382.03  4389.39  4406.72
                             4419.91  4427.15  4990.55  4998.90  5100.88
                             5114.77

 Zero-point correction=                           0.225131 (Hartree/Particle)
 Thermal correction to Energy=                    0.235750
 Thermal correction to Enthalpy=                  0.236694
 Thermal correction to Gibbs Free Energy=         0.188317
 Sum of electronic and zero-point Energies=           -347.576983
 Sum of electronic and thermal Energies=              -347.566365
 Sum of electronic and thermal Enthalpies=            -347.565420
 Sum of electronic and thermal Free Energies=         -347.613797

                     E (Thermal)             CV                S
                      KCal/Mol        Cal/Mol-Kelvin    Cal/Mol-Kelvin
 Total                  147.935             37.688            101.818
 Electronic               0.000              0.000              0.000
 Translational            0.889              2.981             40.164
 Rotational               0.889              2.981             29.565
 Vibrational            146.158             31.727             32.089
 Vibration     1          0.595              1.980              5.100
 Vibration     2          0.596              1.976              4.692
 Vibration     3          0.603              1.952              3.526
 Vibration     4          0.607              1.938              3.193
 Vibration     5          0.616              1.909              2.744
 Vibration     6          0.635              1.848              2.187
 Vibration     7          0.659              1.774              1.779
 Vibration     8          0.690              1.682              1.442
 Vibration     9          0.692              1.675              1.421
 Vibration    10          0.728              1.573              1.161
 Vibration    11          0.741              1.537              1.085
 Vibration    12          0.815              1.345              0.774
 Vibration    13          0.879              1.198              0.601

                           ! Non-Optimized Parameters !
 Normal termination of Gaussian 16 at Tue Jul  9 18:37:52 2024.
 Gaussian 16:  EM64L-G16RevA.03 25-Dec-2016

 ----------------------------------------------------------------------
 # TD(NStates=10, Root=1) B3LYP/6-31G** SCRF=(Solvent=water) volume pop
 =NPA density=current Geom=AllCheck Guess=Read
 ----------------------------------------------------------------------

 Structure from the checkpoint file:  "NAQMVNRVTILPCV-UHFFFAOYSA-N_conf_2_2.chk"
 ----------------------------------
 NAQMVNRVTILPCV-UHFFFAOYSA-N_conf_2
 ----------------------------------
 Charge =  0 Multiplicity = 1

                         Standard orientation:
 ---------------------------------------------------------------------
 Center     Atomic      Atomic             Coordinates (Angstroms)
 Number     Number       Type             X           Y           Z
 ---------------------------------------------------------------------
      1          7           0       -4.126393   -0.421269   -0.091402
      2          6           0       -2.804457   -0.280544    0.537639
      3          6           0       -1.670842    0.195440   -0.382144
      4          6           0       -0.319229    0.323238    0.332056
      5          6           0        0.809637    0.802727   -0.591176
      6          6           0        2.165452    1.004950    0.104788
      7          6           0        2.834991   -0.276584    0.635806
      8          7           0        3.185411   -1.297756   -0.363219
      9          1           0       -4.387334    0.472320   -0.507171
     10          1           0       -4.046706   -1.062858   -0.879725
     11          1           0       -2.906008    0.416463    1.379811
     12          1           0       -2.535331   -1.251425    0.973927
     13          1           0       -1.949438    1.165618   -0.818441
     14          1           0       -1.577329   -0.505715   -1.224058
     15          1           0       -0.056741   -0.647222    0.774344
     16          1           0       -0.417467    1.023788    1.173782
     17          1           0        0.508992    1.752378   -1.052954
     18          1           0        0.926083    0.093456   -1.422698
     19          1           0        2.857921    1.488492   -0.598370
     20          1           0        2.041033    1.706017    0.942369
     21          1           0        2.192649   -0.753705    1.385735
     22          1           0        3.756339    0.004942    1.160576
     23          1           0        2.339616   -1.619217   -0.830576
     24          1           0        3.747283   -0.865521   -1.096015
 ---------------------------------------------------------------------

 SCF Done:  E(RB3LYP) =  -347.802114269     A.U. after    1 cycles

 Excitation energies and oscillator strengths:

 Excited State   1:      Singlet-A      7.2265 eV  171.57 nm  f=0.0235  <S**2>=0.000
      32 -> 34         0.63275
      33 -> 34         0.27276
 This state for optimization and/or second-order correction.
 Total Energy, E(TD-HF/TD-DFT) =  -347.536545460
 Copying the excited state density for this state as the 1-particle RhoCI density.

 Excited State   2:      Singlet-A      7.4476 eV  166.47 nm  f=0.0167  <S**2>=0.000
      32 -> 35        -0.24217
      33 -> 34         0.17445
      33 -> 35         0.62767

 Excited State   3:      Singlet-A      7.8063 eV  158.83 nm  f=0.0014  <S**2>=0.000
      32 -> 34        -0.26407
      33 -> 34         0.61704
      33 -> 35        -0.16140

 Excited State   4:      Singlet-A      8.3161 eV  149.09 nm  f=0.0081  <S**2>=0.000
      32 -> 35         0.58980
      32 -> 36        -0.19596
      32 -> 37         0.12172
      32 -> 38        -0.12595
      33 -> 35         0.23042

 Excited State   5:      Singlet-A      8.5125 eV  145.65 nm  f=0.0350  <S**2>=0.000
      32 -> 35         0.25243
      32 -> 36         0.40587
      32 -> 37        -0.24094
      32 -> 38         0.11220
      32 -> 40         0.18207
      33 -> 36         0.36769

 Excited State   6:      Singlet-A      8.5338 eV  145.29 nm  f=0.0217  <S**2>=0.000
      32 -> 36        -0.34528
      33 -> 36         0.46463
      33 -> 37         0.18596
      33 -> 38        -0.19864
      33 -> 39         0.21981

 Excited State   7:      Singlet-A      8.6232 eV  143.78 nm  f=0.0486  <S**2>=0.000
      32 -> 36         0.26317
      32 -> 37         0.50394
      32 -> 38         0.21644
      32 -> 39        -0.13035
      32 -> 40        -0.11912
      33 -> 37         0.25263
      33 -> 38         0.10802

 Excited State   8:      Singlet-A      8.7096 eV  142.35 nm  f=0.0211  <S**2>=0.000
      32 -> 37        -0.28146
      33 -> 36        -0.15523
      33 -> 37         0.56330
      33 -> 40         0.20932

 Excited State   9:      Singlet-A      8.9475 eV  138.57 nm  f=0.0055  <S**2>=0.000
      32 -> 36        -0.23817
      32 -> 38         0.53521
      32 -> 41         0.12314
      33 -> 38         0.28785

 Excited State  10:      Singlet-A      9.0444 eV  137.08 nm  f=0.0030  <S**2>=0.000
      32 -> 38        -0.30577
      33 -> 36         0.15030
      33 -> 37         0.12118
      33 -> 38         0.56070
      33 -> 39         0.12232
      33 -> 41        -0.12831

 The electronic state is 1-A.
 Alpha  occ. eigenvalues --  -14.30947 -14.30905 -10.20043 -10.20036 -10.17560
 Alpha  occ. eigenvalues --  -10.17536 -10.17389 -10.17321  -0.87421  -0.87331
 Alpha  occ. eigenvalues --   -0.79023  -0.73837  -0.67684  -0.62573  -0.58493
 Alpha  occ. eigenvalues --   -0.55965  -0.49310  -0.48723  -0.45852  -0.43723
 Alpha  occ. eigenvalues --   -0.41951  -0.41850  -0.41325  -0.38684  -0.36864
 Alpha  occ. eigenvalues --   -0.36102  -0.34388  -0.33155  -0.32180  -0.31891
 Alpha  occ. eigenvalues --   -0.31358  -0.23543  -0.23399
 Alpha virt. eigenvalues --    0.07438   0.08914   0.11259   0.11649   0.12491
 Alpha virt. eigenvalues --    0.13950   0.14528   0.15860   0.16626   0.17891
 Alpha virt. eigenvalues --    0.18614   0.19284   0.19767   0.20503   0.21139

 Mulliken charges:
               1
     1  N   -0.640321
     2  C   -0.059948
     3  C   -0.178558
     4  C   -0.136180
     5  C   -0.119215
     6  C   -0.171190
     7  C   -0.108832
     8  N   -0.084737
     9  H    0.246925
    10  H    0.247280
    11  H    0.097124
    12  H    0.096567
    13  H    0.081551
    14  H    0.071994
    15  H    0.015275
    16  H    0.066048
    17  H    0.057326
    18  H   -0.013067
    19  H    0.083686
    20  H    0.125159
    21  H    0.113941
    22  H    0.127924
    23  H   -0.013068
    24  H    0.094314
 Sum of Mulliken charges =  -0.00000

 Dipole moment (field-independent basis, Debye):
    X=              3.9772    Y=              0.8473    Z=             -0.1007  Tot=              4.0677
 Quadrupole moment (field-independent basis, Debye-Ang):
   XX=            -55.1273   YY=            -53.8991   ZZ=            -54.4397
   XY=             -4.0778   XZ=              7.9189   YZ=              1.1272

 Summary of Natural Population Analysis:

                                       Natural Population
                Natural  -----------------------------------------------
    Atom  No    Charge         Core      Valence    Rydberg      Total
 -----------------------------------------------------------------------
      N    1   -0.92498      1.99971     5.91013    0.01515     7.92498
      C    2   -0.26092      1.99936     4.24652    0.01504     6.26092
      C    3   -0.48260      1.99932     4.47140    0.01188     6.48260
      C    4   -0.47363      1.99933     4.46032    0.01398     6.47363
      C    5   -0.47380      1.99932     4.46021    0.01427     6.47380
      C    6   -0.45084      1.99926     4.44075    0.01083     6.45084
      C    7   -0.36570      1.99933     4.34626    0.02011     6.36570
      N    8   -0.37956      1.99935     5.35678    0.02343     7.37956
      H    9    0.38204      0.00000     0.61498    0.00298     0.61796
      H   10    0.38220      0.00000     0.61484    0.00296     0.61780
      H   11    0.22097      0.00000     0.77675    0.00229     0.77903
      H   12    0.22044      0.00000     0.77691    0.00266     0.77956
      H   13    0.22316      0.00000     0.77304    0.00380     0.77684
      H   14    0.21566      0.00000     0.77701    0.00732     0.78434
      H   15    0.17189      0.00000     0.80018    0.02792     0.82811
      H   16    0.21761      0.00000     0.77536    0.00703     0.78239
      H   17    0.21437      0.00000     0.77513    0.01050     0.78563
      H   18    0.15361      0.00000     0.81023    0.03616     0.84639
      H   19    0.22647      0.00000     0.75668    0.01685     0.77353
      H   20    0.25689      0.00000     0.73748    0.00563     0.74311
      H   21    0.23481      0.00000     0.74744    0.01774     0.76519
      H   22    0.25202      0.00000     0.73522    0.01275     0.74798
      H   23    0.17376      0.00000     0.74050    0.08574     0.82624
      H   24    0.26484      0.00000     0.67021    0.06495     0.73516
 =======================================================================
   * Total *   -0.00131     15.99498    49.57433    0.43200    66.00131

 1\1\GINC-CN33\SP\RB3LYP TD-FC\6-31G(d,p)\C6H16N2\QDUEZ\09-Jul-2024\0\\
 # TD(NStates=10, Root=1) B3LYP/6-31G** SCRF=(Solvent=water) volume pop
 =NPA density=current Geom=AllCheck Guess=Read\\NAQMVNRVTILPCV-UHFFFAOY
 SA-N_conf_2\\0,1\N,0,3.9396640771,0.9770247096,1.0127881157\C,0,2.7810
 021668,0.0865370118,0.84681941\C,0,1.6107951156,0.6530624281,0.0299305
 642\C,0,0.4349248034,-0.3224125958,-0.1080926352\C,0,-0.7306310981,0.2
 476530146,-0.9285259862\C,0,-1.9008786396,-0.7259935115,-1.1430624543\
 C,0,-2.6834717511,-1.1108795261,0.1265840922\N,0,-3.3601831182,-0.0162

 Normal termination of Gaussian 16 at Tue Jul  9 19:03:25 2024.
