 Gaussian 16, Revision A.03,

 -------------------------------------------------------
 # opt=CalcFc B3LYP/6-31G** SCRF=(Solvent=water) scf=xqc
 -------------------------------------------------------

 ----------------------------------
 NAQMVNRVTILPCV-UHFFFAOYSA-N_conf_0
 ----------------------------------
 Symbolic Z-matrix:
 Charge =  0 Multiplicity = 1

 SCF Done:  E(RB3LYP) =  -347.794696526     A.U. after   11 cycles
 SCF Done:  E(RB3LYP) =  -347.797804423     A.U. after    9 cycles
 SCF Done:  E(RB3LYP) =  -347.798035994     A.U. after    9 cycles
 SCF Done:  E(RB3LYP) =  -347.798039881     A.U. after    8 cycles
 SCF Done:  E(RB3LYP) =  -347.798040192     A.U. after    7 cycles
 SCF Done:  E(RB3LYP) =  -347.798040172     A.U. after    6 cycles
 Optimization completed.
    -- Stationary point found.
 Normal termination of Gaussian 16 at Tue Jul  9 18:20:40 2024.

 ----------------------------------------------------------------------
 # freq B3LYP/6-31G** SCRF=(Solvent=water) volume NMR pop=NPA density=c
 urrent Geom=AllCheck Guess=Read
 ----------------------------------------------------------------------

 Structure from the checkpoint file:  "NAQMVNRVTILPCV-UHFFFAOYSA-N_conf_0_1.chk"
 ----------------------------------
 NAQMVNRVTILPCV-UHFFFAOYSA-N_conf_0
 ----------------------------------
 Charge =  0 Multiplicity = 1

 SCF Done:  E(RB3LYP) =  -347.798040172     A.U. after    1 cycles

      1  N    Isotropic =   229.6267   Anisotropy =    33.5075

      2  C    Isotropic =   144.2551   Anisotropy =    21.0821

      3  C    Isotropic =   159.5553   Anisotropy =    14.2271

      4  C    Isotropic =   158.0074   Anisotropy =    24.7588

      5  C    Isotropic =   159.4723   Anisotropy =    27.8187

      6  C    Isotropic =   156.7191   Anisotropy =    25.8727

      7  C    Isotropic =   147.1052   Anisotropy =    23.7123

      8  N    Isotropic =   233.2114   Anisotropy =    31.5345

      9  H    Isotropic =    31.0357   Anisotropy =    15.3375

     10  H    Isotropic =    31.6520   Anisotropy =    10.7238

     11  H    Isotropic =    28.5147   Anisotropy =     9.0262

     12  H    Isotropic =    29.1526   Anisotropy =     6.7301

     13  H    Isotropic =    30.1713   Anisotropy =     8.8420

     14  H    Isotropic =    30.4142   Anisotropy =     6.1697

     15  H    Isotropic =    30.4514   Anisotropy =     5.3016

     16  H    Isotropic =    30.1738   Anisotropy =     6.7401

     17  H    Isotropic =    30.7746   Anisotropy =     5.2357

     18  H    Isotropic =    28.6762   Anisotropy =     7.5291

     19  H    Isotropic =    30.4350   Anisotropy =     5.7732

     20  H    Isotropic =    30.4979   Anisotropy =     6.6734

     21  H    Isotropic =    28.6390   Anisotropy =     8.7891

     22  H    Isotropic =    29.3270   Anisotropy =     6.5628

     23  H    Isotropic =    31.7607   Anisotropy =    12.2478

     24  H    Isotropic =    31.1347   Anisotropy =    15.3781

  Exact polarizability: 105.971   1.591 101.232   2.499  -0.679  95.989
 Approx polarizability: 103.685   1.412 107.130   3.002  -1.070 106.833

                      1                      2                      3
                      A                      A                      A
 Frequencies --     34.9954                71.4948                91.0386
 Red. masses --      2.7217                 3.3412                 2.0310
 Frc consts  --      0.0020                 0.0101                 0.0099
 IR Inten    --      0.7133                 4.0089                 9.5623

                      4                      5                      6
                      A                      A                      A
 Frequencies --    127.0576               156.7113               180.6555
 Red. masses --      2.1792                 2.3565                 1.7969
 Frc consts  --      0.0207                 0.0341                 0.0346
 IR Inten    --      3.9530                 4.5577                 6.2112

                      7                      8                      9
                      A                      A                      A
 Frequencies --    254.3348               270.0873               292.7599
 Red. masses --      1.1875                 1.4021                 2.1100
 Frc consts  --      0.0453                 0.0603                 0.1066
 IR Inten    --    101.9483                31.0887                 6.4832

                     10                     11                     12
                      A                      A                      A
 Frequencies --    328.3192               367.9725               484.8518
 Red. masses --      2.1125                 2.9052                 1.9031
 Frc consts  --      0.1342                 0.2318                 0.2636
 IR Inten    --      0.2255                 9.3032                17.2414

                     13                     14                     15
                      A                      A                      A
 Frequencies --    503.1402               746.6090               786.0123
 Red. masses --      2.2202                 1.1453                 1.7380
 Frc consts  --      0.3311                 0.3762                 0.6326
 IR Inten    --      3.7060                 3.8008                14.8110

                     16                     17                     18
                      A                      A                      A
 Frequencies --    834.7303               843.2395               864.1061
 Red. masses --      1.7355                 1.5690                 1.2928
 Frc consts  --      0.7125                 0.6573                 0.5687
 IR Inten    --     56.7561                70.9821                58.6109

                     19                     20                     21
                      A                      A                      A
 Frequencies --    907.4271               929.1860               963.9044
 Red. masses --      1.9844                 2.0110                 1.4623
 Frc consts  --      0.9627                 1.0230                 0.8005
 IR Inten    --     77.8380                29.1212                66.3587

                     22                     23                     24
                      A                      A                      A
 Frequencies --    993.1071              1001.5615              1059.4093
 Red. masses --      2.0191                 1.5377                 1.4233
 Frc consts  --      1.1733                 0.9088                 0.9412
 IR Inten    --     12.2413                16.8554                10.4554

                     25                     26                     27
                      A                      A                      A
 Frequencies --   1065.2269              1084.2963              1108.7711
 Red. masses --      2.2727                 1.5987                 2.1142
 Frc consts  --      1.5194                 1.1074                 1.5314
 IR Inten    --     16.6568                 9.5773                 1.3581

                     28                     29                     30
                      A                      A                      A
 Frequencies --   1120.8456              1140.1844              1207.1696
 Red. masses --      2.1131                 1.5236                 1.5305
 Frc consts  --      1.5641                 1.1670                 1.3141
 IR Inten    --      5.4018                 9.5865                 1.0496

                     31                     32                     33
                      A                      A                      A
 Frequencies --   1248.6559              1281.9089              1302.7294
 Red. masses --      1.3284                 1.3802                 1.1615
 Frc consts  --      1.2203                 1.3363                 1.1613
 IR Inten    --      4.4068                 1.5780                 8.9380

                     34                     35                     36
                      A                      A                      A
 Frequencies --   1320.9053              1326.3146              1338.2599
 Red. masses --      1.2387                 1.1514                 1.1142
 Frc consts  --      1.2734                 1.1934                 1.1757
 IR Inten    --      3.2084                 0.2437                 4.8632

                     37                     38                     39
                      A                      A                      A
 Frequencies --   1342.1626              1386.7600              1396.1224
 Red. masses --      1.2014                 1.3560                 1.4504
 Frc consts  --      1.2751                 1.5365                 1.6656
 IR Inten    --      4.9205                 5.4447                 4.5449

                     40                     41                     42
                      A                      A                      A
 Frequencies --   1410.2018              1429.4680              1435.8256
 Red. masses --      1.6095                 1.4284                 1.4291
 Frc consts  --      1.8858                 1.7197                 1.7358
 IR Inten    --      7.0873                19.1095                20.0720

                     43                     44                     45
                      A                      A                      A
 Frequencies --   1488.0405              1488.7618              1492.5092
 Red. masses --      1.0845                 1.0859                 1.0923
 Frc consts  --      1.4148                 1.4181                 1.4336
 IR Inten    --      2.1407                 4.2605                 1.3520

                     46                     47                     48
                      A                      A                      A
 Frequencies --   1519.0237              1520.4429              1522.7269
 Red. masses --      1.0885                 1.0900                 1.0922
 Frc consts  --      1.4798                 1.4846                 1.4921
 IR Inten    --      2.5846                 4.4413                 1.7877

                     49                     50                     51
                      A                      A                      A
 Frequencies --   1654.0242              1654.0809              2952.0846
 Red. masses --      1.0870                 1.0876                 1.0727
 Frc consts  --      1.7522                 1.7532                 5.5077
 IR Inten    --     40.8040                33.8099               142.4400

                     52                     53                     54
                      A                      A                      A
 Frequencies --   2957.6826              3003.4167              3004.6784
 Red. masses --      1.0721                 1.0674                 1.0614
 Frc consts  --      5.5257                 5.6730                 5.6460
 IR Inten    --    130.0253                 6.4711                 8.8674

                     55                     56                     57
                      A                      A                      A
 Frequencies --   3011.0146              3012.1803              3038.3617
 Red. masses --      1.0682                 1.0668                 1.0949
 Frc consts  --      5.7059                 5.7027                 5.9554
 IR Inten    --    151.1719                23.6462                 1.6383

                     58                     59                     60
                      A                      A                      A
 Frequencies --   3039.4905              3044.0125              3051.4804
 Red. masses --      1.0921                 1.0943                 1.0950
 Frc consts  --      5.9444                 5.9740                 6.0075
 IR Inten    --     50.4316               126.4707               156.4646

                     61                     62                     63
                      A                      A                      A
 Frequencies --   3058.4273              3124.6949              3473.8506
 Red. masses --      1.0977                 1.0908                 1.0506
 Frc consts  --      6.0497                 6.2748                 7.4697
 IR Inten    --    118.9945                31.7226                 1.4173

                     64                     65                     66
                      A                      A                      A
 Frequencies --   3473.9881              3552.6108              3553.0023
 Red. masses --      1.0510                 1.0917                 1.0912
 Frc consts  --      7.4730                 8.1180                 8.1164
 IR Inten    --      1.6753                 0.1779                 0.1392

 - Thermochemistry -
 -------------------
 Temperature   298.150 Kelvin.  Pressure   1.00000 Atm.
 Atom     1 has atomic number  7 and mass  14.00307

 Molecular mass:   116.13135 amu.
 Principal axes and moments of inertia in atomic units:
                           1         2         3
     Eigenvalues --   540.317332170.076862568.52795
           X            1.00000  -0.00182  -0.00152
           Y            0.00183   0.99999   0.00310
           Z            0.00152  -0.00310   0.99999
 This molecule is an asymmetric top.
 Rotational symmetry number  1.
 Warning -- assumption of classical behavior for rotation
           may cause significant error
 Rotational temperatures (Kelvin)      0.16030     0.03991     0.03372
 Rotational constants (GHZ):           3.34015     0.83165     0.70264
 Zero-point vibrational energy     590531.2 (Joules/Mol)
                                  141.14034 (Kcal/Mol)
 Warning -- explicit consideration of  13 degrees of freedom as
           vibrations may cause significant error
 Vibrational temperatures:     50.35   102.87   130.98   182.81   225.47
          (Kelvin)            259.92   365.93   388.60   421.22   472.38
                              529.43   697.59   723.91  1074.20  1130.90
                             1200.99  1213.23  1243.26  1305.59  1336.89
                             1386.84  1428.86  1441.02  1524.25  1532.62
                             1560.06  1595.27  1612.65  1640.47  1736.85
                             1796.54  1844.38  1874.34  1900.49  1908.27
                             1925.46  1931.07  1995.24  2008.71  2028.97
                             2056.69  2065.83  2140.96  2142.00  2147.39
                             2185.54  2187.58  2190.86  2379.77  2379.85
                             4247.39  4255.45  4321.25  4323.06  4332.18
                             4333.86  4371.52  4373.15  4379.66  4390.40
                             4400.39  4495.74  4998.10  4998.29  5111.41
                             5111.98

 Zero-point correction=                           0.224921 (Hartree/Particle)
 Thermal correction to Energy=                    0.235532
 Thermal correction to Enthalpy=                  0.236477
 Thermal correction to Gibbs Free Energy=         0.188199
 Sum of electronic and zero-point Energies=           -347.573119
 Sum of electronic and thermal Energies=              -347.562508
 Sum of electronic and thermal Enthalpies=            -347.561564
 Sum of electronic and thermal Free Energies=         -347.609841

                     E (Thermal)             CV                S
                      KCal/Mol        Cal/Mol-Kelvin    Cal/Mol-Kelvin
 Total                  147.799             37.640            101.609
 Electronic               0.000              0.000              0.000
 Translational            0.889              2.981             40.164
 Rotational               0.889              2.981             29.489
 Vibrational            146.021             31.679             31.956
 Vibration     1          0.594              1.982              5.524
 Vibration     2          0.598              1.968              4.112
 Vibration     3          0.602              1.956              3.638
 Vibration     4          0.611              1.926              2.990
 Vibration     5          0.620              1.895              2.589
 Vibration     6          0.630              1.866              2.322
 Vibration     7          0.665              1.755              1.700
 Vibration     8          0.674              1.728              1.596
 Vibration     9          0.688              1.687              1.458
 Vibration    10          0.712              1.619              1.268
 Vibration    11          0.741              1.538              1.088
 Vibration    12          0.841              1.284              0.697
 Vibration    13          0.858              1.243              0.650

 Optimization completed.
    -- Stationary point found.
 Normal termination of Gaussian 16 at Tue Jul  9 18:40:04 2024.
 Gaussian 16:  EM64L-G16RevA.03 25-Dec-2016

 ----------------------------------------------------------------------
 # TD(NStates=10, Root=1) B3LYP/6-31G** SCRF=(Solvent=water) volume pop
 =NPA density=current Geom=AllCheck Guess=Read
 ----------------------------------------------------------------------

 Structure from the checkpoint file:  "NAQMVNRVTILPCV-UHFFFAOYSA-N_conf_0_2.chk"
 ----------------------------------
 NAQMVNRVTILPCV-UHFFFAOYSA-N_conf_0
 ----------------------------------
 Charge =  0 Multiplicity = 1

                         Standard orientation:
 ---------------------------------------------------------------------
 Center     Atomic      Atomic             Coordinates (Angstroms)
 Number     Number       Type             X           Y           Z
 ---------------------------------------------------------------------
      1          7           0       -2.132712    1.616112    0.009387
      2          6           0       -2.875861    0.369431   -0.237210
      3          6           0       -2.179525   -0.869316    0.339896
      4          6           0       -0.808352   -1.229690   -0.262989
      5          6           0        0.386044   -0.449278    0.303561
      6          6           0        1.724430   -0.879729   -0.308108
      7          6           0        2.942994   -0.126530    0.235735
      8          7           0        2.876565    1.310613   -0.078996
      9          1           0       -2.674634    2.399749   -0.351132
     10          1           0       -2.076537    1.769861    1.015349
     11          1           0       -3.904967    0.397117    0.161279
     12          1           0       -2.970437    0.249382   -1.324666
     13          1           0       -2.865059   -1.713123    0.188979
     14          1           0       -2.084062   -0.755703    1.430034
     15          1           0       -0.850350   -1.094297   -1.353619
     16          1           0       -0.630107   -2.302312   -0.102326
     17          1           0        0.427076   -0.601665    1.392743
     18          1           0        0.231783    0.620602    0.145883
     19          1           0        1.687930   -0.751824   -1.400666
     20          1           0        1.881061   -1.953807   -0.136984
     21          1           0        3.857448   -0.611430   -0.146561
     22          1           0        2.972694   -0.227046    1.328665
     23          1           0        2.953244    1.425786   -1.089004
     24          1           0        3.699569    1.772307    0.303979
 ---------------------------------------------------------------------

 SCF Done:  E(RB3LYP) =  -347.798040172     A.U. after    1 cycles

 Excitation energies and oscillator strengths:

 Excited State   1:      Singlet-A      7.3180 eV  169.42 nm  f=0.0154  <S**2>=0.000
      32 -> 34         0.31834
      32 -> 35        -0.19478
      33 -> 34         0.53868
      33 -> 35        -0.22398
 This state for optimization and/or second-order correction.
 Total Energy, E(TD-HF/TD-DFT) =  -347.529108364
 Copying the excited state density for this state as the 1-particle RhoCI density.

 Excited State   2:      Singlet-A      7.3808 eV  167.98 nm  f=0.0118  <S**2>=0.000
      32 -> 34        -0.27471
      32 -> 35        -0.42289
      33 -> 34         0.19243
      33 -> 35         0.43836

 Excited State   3:      Singlet-A      8.1166 eV  152.75 nm  f=0.0037  <S**2>=0.000
      32 -> 34        -0.34623
      32 -> 35         0.44152
      33 -> 34         0.40733
      33 -> 36         0.10537

 Excited State   4:      Singlet-A      8.1228 eV  152.64 nm  f=0.0009  <S**2>=0.000
      32 -> 34         0.43919
      32 -> 35         0.23921
      33 -> 35         0.49222

 Excited State   5:      Singlet-A      8.4814 eV  146.18 nm  f=0.0209  <S**2>=0.000
      32 -> 36         0.22132
      32 -> 37         0.13622
      32 -> 38         0.10681
      32 -> 39         0.11043
      33 -> 36         0.45670
      33 -> 37         0.38296
      33 -> 38         0.12437
      33 -> 39         0.10043

 Excited State   6:      Singlet-A      8.5693 eV  144.68 nm  f=0.0166  <S**2>=0.000
      32 -> 35         0.11752
      32 -> 37        -0.16608
      32 -> 38        -0.11848
      32 -> 39         0.17682
      33 -> 36        -0.36761
      33 -> 37         0.50717

 Excited State   7:      Singlet-A      8.6879 eV  142.71 nm  f=0.0268  <S**2>=0.000
      32 -> 36        -0.23738
      32 -> 37         0.52841
      33 -> 36        -0.12902
      33 -> 37         0.11982
      33 -> 38        -0.17296
      33 -> 39         0.26663

 Excited State   8:      Singlet-A      8.7287 eV  142.04 nm  f=0.0349  <S**2>=0.000
      32 -> 36         0.47458
      32 -> 37         0.19859
      32 -> 38        -0.14346
      32 -> 40         0.10662
      33 -> 36        -0.23445
      33 -> 37        -0.12026
      33 -> 38         0.29102
      33 -> 40        -0.10457

 Excited State   9:      Singlet-A      9.0907 eV  136.39 nm  f=0.0097  <S**2>=0.000
      32 -> 36        -0.32439
      32 -> 38         0.20508
      32 -> 41         0.10027
      33 -> 38         0.54514
      33 -> 41         0.11723

 Excited State  10:      Singlet-A      9.1809 eV  135.05 nm  f=0.0170  <S**2>=0.000
      32 -> 36         0.20278
      32 -> 37         0.10386
      32 -> 38         0.51884
      32 -> 40        -0.12007
      33 -> 36        -0.20344
      33 -> 38        -0.13730
      33 -> 40         0.14936
      33 -> 41         0.21249

 The electronic state is 1-A.
 Alpha  occ. eigenvalues --  -14.30778 -14.30696 -10.20035 -10.19935 -10.17439
 Alpha  occ. eigenvalues --  -10.17150 -10.17102 -10.16304  -0.87236  -0.87115
 Alpha  occ. eigenvalues --   -0.78390  -0.73824  -0.67888  -0.61772  -0.57121
 Alpha  occ. eigenvalues --   -0.56129  -0.48200  -0.47557  -0.45440  -0.45057
 Alpha  occ. eigenvalues --   -0.43378  -0.42597  -0.39118  -0.38113  -0.37768
 Alpha  occ. eigenvalues --   -0.35268  -0.33728  -0.32592  -0.31696  -0.31361
 Alpha  occ. eigenvalues --   -0.30453  -0.23496  -0.22892
 Alpha virt. eigenvalues --    0.08491   0.08880   0.11786   0.12047   0.13448
 Alpha virt. eigenvalues --    0.14333   0.15130   0.15592   0.17076   0.17743
 Alpha virt. eigenvalues --    0.18121   0.18514   0.20058   0.20170   0.21298

 Mulliken charges:
               1
     1  N   -0.068752
     2  C   -0.066348
     3  C   -0.153099
     4  C   -0.161853
     5  C   -0.153338
     6  C   -0.182490
     7  C   -0.056857
     8  N   -0.628479
     9  H   -0.015787
    10  H    0.009755
    11  H    0.087046
    12  H    0.092962
    13  H    0.047112
    14  H    0.061396
    15  H    0.084126
    16  H    0.074370
    17  H    0.079310
    18  H    0.085735
    19  H    0.091425
    20  H    0.094260
    21  H    0.081999
    22  H    0.099778
    23  H    0.247483
    24  H    0.250249
 Sum of Mulliken charges =  -0.00000

 Dipole moment (field-independent basis, Debye):
    X=              1.5543    Y=             -0.7315    Z=             -1.1937  Tot=              2.0918
 Quadrupole moment (field-independent basis, Debye-Ang):
   XX=            -45.8055   YY=            -58.0688   ZZ=            -54.3121
   XY=              2.7604   XZ=             -0.2832   YZ=             -1.3330

 Summary of Natural Population Analysis:

                                       Natural Population
                Natural  -----------------------------------------------
    Atom  No    Charge         Core      Valence    Rydberg      Total
 -----------------------------------------------------------------------
      N    1   -0.40266      1.99934     5.37988    0.02344     7.40266
      C    2   -0.35225      1.99930     4.33477    0.01818     6.35225
      C    3   -0.47657      1.99932     4.46438    0.01287     6.47657
      C    4   -0.46153      1.99933     4.45029    0.01191     6.46153
      C    5   -0.46427      1.99932     4.45135    0.01360     6.46427
      C    6   -0.47428      1.99932     4.46288    0.01208     6.47428
      C    7   -0.25927      1.99936     4.24628    0.01364     6.25927
      N    8   -0.92597      1.99968     5.91151    0.01479     7.92597
      H    9    0.17490      0.00000     0.73964    0.08546     0.82510
      H   10    0.20175      0.00000     0.71499    0.08326     0.79825
      H   11    0.23494      0.00000     0.72663    0.03843     0.76506
      H   12    0.22390      0.00000     0.75370    0.02240     0.77610
      H   13    0.19906      0.00000     0.78488    0.01606     0.80094
      H   14    0.21305      0.00000     0.76753    0.01943     0.78695
      H   15    0.22712      0.00000     0.76756    0.00532     0.77288
      H   16    0.22222      0.00000     0.76941    0.00837     0.77778
      H   17    0.22272      0.00000     0.77141    0.00587     0.77728
      H   18    0.22570      0.00000     0.76730    0.00700     0.77430
      H   19    0.22809      0.00000     0.76938    0.00253     0.77191
      H   20    0.23869      0.00000     0.75915    0.00216     0.76131
      H   21    0.20976      0.00000     0.78760    0.00265     0.79024
      H   22    0.22314      0.00000     0.77454    0.00231     0.77686
      H   23    0.38166      0.00000     0.61466    0.00368     0.61834
      H   24    0.38903      0.00000     0.60767    0.00331     0.61097
 =======================================================================
   * Total *   -0.00108     15.99497    49.57739    0.42873    66.00108

 1\1\GINC-CN33\SP\RB3LYP TD-FC\6-31G(d,p)\C6H16N2\QDUEZ\09-Jul-2024\0\\
 # TD(NStates=10, Root=1) B3LYP/6-31G** SCRF=(Solvent=water) volume pop
 =NPA density=current Geom=AllCheck Guess=Read\\NAQMVNRVTILPCV-UHFFFAOY
 SA-N_conf_0\\0,1\N,0,-2.2339355562,1.4715405137,-0.6779719889\C,0,-2.8
 003547944,0.1582743514,-1.0269626806\C,0,-2.1019943637,-1.0060648043,-
 0.3134947454\C,0,-0.6182283588,-1.2332487558,-0.6603105511\C,0,0.37831
 15782,-0.33972379,0.0914391899\C,0,1.8381505178,-0.6398475652,-0.26842
 34039\C,0,2.8649473764,0.2288842715,0.4657178003\N,0,2.7187920764,1.65

 Normal termination of Gaussian 16 at Tue Jul  9 19:05:12 2024.
