 Gaussian 16, Revision A.03,

 -------------------------------------------------------
 # opt=CalcFc B3LYP/6-31G** SCRF=(Solvent=water) scf=xqc
 -------------------------------------------------------

 ----------------------------------
 NAQMVNRVTILPCV-UHFFFAOYSA-N_conf_1
 ----------------------------------
 Symbolic Z-matrix:
 Charge =  0 Multiplicity = 1

 SCF Done:  E(RB3LYP) =  -347.796916027     A.U. after   11 cycles
 SCF Done:  E(RB3LYP) =  -347.799373043     A.U. after    9 cycles
 SCF Done:  E(RB3LYP) =  -347.799443158     A.U. after    9 cycles
 SCF Done:  E(RB3LYP) =  -347.799446686     A.U. after    7 cycles
 SCF Done:  E(RB3LYP) =  -347.799447018     A.U. after    7 cycles
 SCF Done:  E(RB3LYP) =  -347.799446959     A.U. after    6 cycles
 Optimization completed.
    -- Stationary point found.
 Normal termination of Gaussian 16 at Tue Jul  9 18:21:48 2024.

 ----------------------------------------------------------------------
 # freq B3LYP/6-31G** SCRF=(Solvent=water) volume NMR pop=NPA density=c
 urrent Geom=AllCheck Guess=Read
 ----------------------------------------------------------------------

 Structure from the checkpoint file:  "NAQMVNRVTILPCV-UHFFFAOYSA-N_conf_1_1.chk"
 ----------------------------------
 NAQMVNRVTILPCV-UHFFFAOYSA-N_conf_1
 ----------------------------------
 Charge =  0 Multiplicity = 1

 SCF Done:  E(RB3LYP) =  -347.799446959     A.U. after    1 cycles

      1  N    Isotropic =   234.0251   Anisotropy =    32.0760

      2  C    Isotropic =   149.3197   Anisotropy =    36.1093

      3  C    Isotropic =   161.7325   Anisotropy =    26.5583

      4  C    Isotropic =   162.6242   Anisotropy =    11.7011

      5  C    Isotropic =   166.8854   Anisotropy =    16.5495

      6  C    Isotropic =   158.3169   Anisotropy =    26.5688

      7  C    Isotropic =   146.9978   Anisotropy =    25.8513

      8  N    Isotropic =   237.1442   Anisotropy =    40.3751

      9  H    Isotropic =    31.7049   Anisotropy =    12.0506

     10  H    Isotropic =    31.0800   Anisotropy =    15.4196

     11  H    Isotropic =    29.5245   Anisotropy =     5.5689

     12  H    Isotropic =    28.5071   Anisotropy =     7.5933

     13  H    Isotropic =    30.3945   Anisotropy =     7.5898

     14  H    Isotropic =    30.1827   Anisotropy =     4.1429

     15  H    Isotropic =    30.2285   Anisotropy =     8.2258

     16  H    Isotropic =    30.1500   Anisotropy =     8.3237

     17  H    Isotropic =    29.9931   Anisotropy =     4.4885

     18  H    Isotropic =    30.7741   Anisotropy =     8.2899

     19  H    Isotropic =    30.2231   Anisotropy =     4.7344

     20  H    Isotropic =    30.6583   Anisotropy =     7.0551

     21  H    Isotropic =    29.3752   Anisotropy =     7.6185

     22  H    Isotropic =    28.9900   Anisotropy =     8.4719

     23  H    Isotropic =    30.9722   Anisotropy =    11.3705

     24  H    Isotropic =    31.9025   Anisotropy =    12.9697

  Exact polarizability: 102.750   3.534 100.761   1.132  -0.646  97.306
 Approx polarizability: 103.987   3.201 106.891   0.702  -0.552 107.553

                      1                      2                      3
                      A                      A                      A
 Frequencies --     42.0947                42.8469                80.8484
 Red. masses --      3.8603                 2.1354                 2.1531
 Frc consts  --      0.0040                 0.0023                 0.0083
 IR Inten    --      1.8131                 0.6469                10.1393

                      4                      5                      6
                      A                      A                      A
 Frequencies --    138.7717               181.0394               212.1981
 Red. masses --      2.2250                 2.2891                 2.1569
 Frc consts  --      0.0252                 0.0442                 0.0572
 IR Inten    --      3.1940                 3.0886                10.2387

                      7                      8                      9
                      A                      A                      A
 Frequencies --    249.0215               257.4017               314.7461
 Red. masses --      1.3216                 1.6581                 1.9313
 Frc consts  --      0.0483                 0.0647                 0.1127
 IR Inten    --     23.0065                42.8820                18.3192

                     10                     11                     12
                      A                      A                      A
 Frequencies --    322.6698               386.1357               482.1091
 Red. masses --      1.2941                 2.6021                 2.6038
 Frc consts  --      0.0794                 0.2286                 0.3566
 IR Inten    --     49.8439                11.9518                 7.4829

                     13                     14                     15
                      A                      A                      A
 Frequencies --    528.2141               729.9459               791.1936
 Red. masses --      2.1659                 1.2365                 1.2398
 Frc consts  --      0.3560                 0.3882                 0.4573
 IR Inten    --      2.6782                 6.6140                25.1486

                     16                     17                     18
                      A                      A                      A
 Frequencies --    814.5461               827.1572               876.4293
 Red. masses --      1.7993                 1.5246                 1.6970
 Frc consts  --      0.7034                 0.6146                 0.7680
 IR Inten    --     12.1310                 5.5785                33.9097

                     19                     20                     21
                      A                      A                      A
 Frequencies --    895.5509               921.2236               942.4236
 Red. masses --      1.9932                 1.5252                 1.5741
 Frc consts  --      0.9418                 0.7626                 0.8237
 IR Inten    --    147.3089               175.2384                65.0751

                     22                     23                     24
                      A                      A                      A
 Frequencies --   1001.9040              1005.2753              1064.3220
 Red. masses --      1.6408                 1.6051                 2.6957
 Frc consts  --      0.9704                 0.9557                 1.7992
 IR Inten    --     19.2326                17.9131                10.2041

                     25                     26                     27
                      A                      A                      A
 Frequencies --   1073.1551              1083.8836              1105.5178
 Red. masses --      2.2553                 1.4934                 1.9218
 Frc consts  --      1.5303                 1.0337                 1.3839
 IR Inten    --     27.9331                 1.7401                 5.2790

                     28                     29                     30
                      A                      A                      A
 Frequencies --   1115.7234              1168.5077              1174.3306
 Red. masses --      1.5975                 1.5892                 1.4938
 Frc consts  --      1.1717                 1.2784                 1.2137
 IR Inten    --      5.6858                19.7188                 5.3833

                     31                     32                     33
                      A                      A                      A
 Frequencies --   1239.2391              1280.5800              1302.9768
 Red. masses --      1.4412                 1.3766                 1.2744
 Frc consts  --      1.3040                 1.3300                 1.2748
 IR Inten    --      2.4014                 2.5678                 1.2620

                     34                     35                     36
                      A                      A                      A
 Frequencies --   1322.5669              1333.7324              1346.8240
 Red. masses --      1.2228                 1.2042                 1.1355
 Frc consts  --      1.2602                 1.2620                 1.2136
 IR Inten    --      0.2522                 1.7991                 5.8862

                     37                     38                     39
                      A                      A                      A
 Frequencies --   1373.1692              1391.1270              1396.6716
 Red. masses --      1.3034                 1.3164                 1.3026
 Frc consts  --      1.4480                 1.5009                 1.4971
 IR Inten    --      6.0554                28.3690                 3.1209

                     40                     41                     42
                      A                      A                      A
 Frequencies --   1398.0557              1413.6176              1439.2948
 Red. masses --      1.2819                 1.4462                 1.4816
 Frc consts  --      1.4763                 1.7027                 1.8083
 IR Inten    --      4.6895                 1.9413                 9.5478

                     43                     44                     45
                      A                      A                      A
 Frequencies --   1484.1621              1493.3031              1497.6403
 Red. masses --      1.0838                 1.0835                 1.0905
 Frc consts  --      1.4065                 1.4235                 1.4411
 IR Inten    --      1.0012                 2.9691                 0.9422

                     46                     47                     48
                      A                      A                      A
 Frequencies --   1501.2803              1507.8535              1526.5596
 Red. masses --      1.0938                 1.0968                 1.0906
 Frc consts  --      1.4525                 1.4693                 1.4974
 IR Inten    --      3.8430                 4.7398                 1.1772

                     49                     50                     51
                      A                      A                      A
 Frequencies --   1655.9642              1659.4844              2971.5403
 Red. masses --      1.0868                 1.0881                 1.0702
 Frc consts  --      1.7559                 1.7655                 5.5679
 IR Inten    --     36.8137                29.9040               105.3372

                     52                     53                     54
                      A                      A                      A
 Frequencies --   3010.6948              3015.5935              3021.5175
 Red. masses --      1.0606                 1.0627                 1.0629
 Frc consts  --      5.6639                 5.6939                 5.7171
 IR Inten    --      6.4588                50.6370               102.1869

                     55                     56                     57
                      A                      A                      A
 Frequencies --   3024.9330              3028.2096              3041.9806
 Red. masses --      1.0633                 1.0630                 1.0892
 Frc consts  --      5.7323                 5.7431                 5.9383
 IR Inten    --     29.6685                47.3358                26.3513

                     58                     59                     60
                      A                      A                      A
 Frequencies --   3045.5107              3053.9135              3065.6352
 Red. masses --      1.0963                 1.0993                 1.1026
 Frc consts  --      5.9913                 6.0406                 6.1056
 IR Inten    --     42.7086                34.9193               132.5026

                     61                     62                     63
                      A                      A                      A
 Frequencies --   3069.3757              3071.8600              3472.8993
 Red. masses --      1.1033                 1.1040                 1.0511
 Frc consts  --      6.1243                 6.1380                 7.4690
 IR Inten    --     88.8926               199.5625                 2.0916

                     64                     65                     66
                      A                      A                      A
 Frequencies --   3476.2307              3550.1999              3557.4446
 Red. masses --      1.0504                 1.0911                 1.0911
 Frc consts  --      7.4788                 8.1023                 8.1359
 IR Inten    --      1.5246                 0.2778                 0.1156

 - Thermochemistry -
 -------------------
 Temperature   298.150 Kelvin.  Pressure   1.00000 Atm.
 Atom     1 has atomic number  7 and mass  14.00307

 Molecular mass:   116.13135 amu.
 Principal axes and moments of inertia in atomic units:
                           1         2         3
     Eigenvalues --   588.487462196.270412520.62535
           X            0.99997   0.00751   0.00307
           Y           -0.00751   0.99997  -0.00131
           Z           -0.00308   0.00128   0.99999
 This molecule is an asymmetric top.
 Rotational symmetry number  1.
 Warning -- assumption of classical behavior for rotation
           may cause significant error
 Rotational temperatures (Kelvin)      0.14718     0.03944     0.03436
 Rotational constants (GHZ):           3.06675     0.82173     0.71599
 Zero-point vibrational energy     591378.9 (Joules/Mol)
                                  141.34295 (Kcal/Mol)
 Warning -- explicit consideration of  13 degrees of freedom as
           vibrations may cause significant error
 Vibrational temperatures:     60.56    61.65   116.32   199.66   260.48
          (Kelvin)            305.31   358.29   370.34   452.85   464.25
                              555.56   693.65   759.98  1050.23  1138.35
                             1171.95  1190.09  1260.99  1288.50  1325.44
                             1355.94  1441.52  1446.37  1531.32  1544.03
                             1559.47  1590.59  1605.28  1681.22  1689.60
                             1782.99  1842.47  1874.69  1902.88  1918.94
                             1937.78  1975.68  2001.52  2009.50  2011.49
                             2033.88  2070.82  2135.38  2148.53  2154.77
                             2160.01  2169.46  2196.38  2382.56  2387.63
                             4275.38  4331.72  4338.77  4347.29  4352.20
                             4356.92  4376.73  4381.81  4393.90  4410.77
                             4416.15  4419.72  4996.73  5001.52  5107.95
                             5118.37

 Zero-point correction=                           0.225244 (Hartree/Particle)
 Thermal correction to Energy=                    0.235793
 Thermal correction to Enthalpy=                  0.236738
 Thermal correction to Gibbs Free Energy=         0.188381
 Sum of electronic and zero-point Energies=           -347.574203
 Sum of electronic and thermal Energies=              -347.563654
 Sum of electronic and thermal Enthalpies=            -347.562709
 Sum of electronic and thermal Free Energies=         -347.611066

                     E (Thermal)             CV                S
                      KCal/Mol        Cal/Mol-Kelvin    Cal/Mol-Kelvin
 Total                  147.963             37.577            101.775
 Electronic               0.000              0.000              0.000
 Translational            0.889              2.981             40.164
 Rotational               0.889              2.981             29.567
 Vibrational            146.185             31.616             32.044
 Vibration     1          0.595              1.980              5.158
 Vibration     2          0.595              1.980              5.123
 Vibration     3          0.600              1.962              3.870
 Vibration     4          0.614              1.915              2.821
 Vibration     5          0.630              1.865              2.318
 Vibration     6          0.643              1.822              2.025
 Vibration     7          0.662              1.764              1.737
 Vibration     8          0.667              1.750              1.679
 Vibration     9          0.702              1.646              1.337
 Vibration    10          0.708              1.630              1.297
 Vibration    11          0.755              1.500              1.015
 Vibration    12          0.838              1.290              0.704
 Vibration    13          0.883              1.188              0.591

 Optimization completed.
    -- Stationary point found.
 Normal termination of Gaussian 16 at Tue Jul  9 18:42:26 2024.
 Gaussian 16:  EM64L-G16RevA.03 25-Dec-2016

 ----------------------------------------------------------------------
 # TD(NStates=10, Root=1) B3LYP/6-31G** SCRF=(Solvent=water) volume pop
 =NPA density=current Geom=AllCheck Guess=Read
 ----------------------------------------------------------------------

 Structure from the checkpoint file:  "NAQMVNRVTILPCV-UHFFFAOYSA-N_conf_1_2.chk"
 ----------------------------------
 NAQMVNRVTILPCV-UHFFFAOYSA-N_conf_1
 ----------------------------------
 Charge =  0 Multiplicity = 1

                         Standard orientation:
 ---------------------------------------------------------------------
 Center     Atomic      Atomic             Coordinates (Angstroms)
 Number     Number       Type             X           Y           Z
 ---------------------------------------------------------------------
      1          7           0       -3.305064   -1.177968    0.267226
      2          6           0       -2.188389   -0.501822   -0.416165
      3          6           0       -1.716349    0.707552    0.394477
      4          6           0       -0.645258    1.565354   -0.300740
      5          6           0        0.703162    0.876929   -0.581150
      6          6           0        1.463519    0.427741    0.673564
      7          6           0        2.854298   -0.164062    0.383554
      8          7           0        2.894481   -1.408969   -0.399108
      9          1           0       -2.958726   -1.574248    1.140466
     10          1           0       -3.594030   -1.981628   -0.288073
     11          1           0       -2.551203   -0.160500   -1.394637
     12          1           0       -1.336678   -1.172496   -0.616486
     13          1           0       -2.591069    1.334861    0.606626
     14          1           0       -1.347071    0.362719    1.370161
     15          1           0       -0.461292    2.456064    0.314838
     16          1           0       -1.054482    1.934234   -1.251143
     17          1           0        0.547644    0.017203   -1.245194
     18          1           0        1.336165    1.578962   -1.141676
     19          1           0        0.875884   -0.316758    1.228061
     20          1           0        1.585101    1.287407    1.348286
     21          1           0        3.461812    0.580858   -0.147315
     22          1           0        3.363604   -0.355304    1.336194
     23          1           0        2.471337   -1.249122   -1.311357
     24          1           0        2.301187   -2.103839    0.053178
 ---------------------------------------------------------------------

 SCF Done:  E(RB3LYP) =  -347.799446959     A.U. after    1 cycles

 Excitation energies and oscillator strengths:

 Excited State   1:      Singlet-A      7.3106 eV  169.59 nm  f=0.0293  <S**2>=0.000
      32 -> 34        -0.21014
      33 -> 34         0.61499
      33 -> 35        -0.19898
      33 -> 36        -0.15294
 This state for optimization and/or second-order correction.
 Total Energy, E(TD-HF/TD-DFT) =  -347.530785690
 Copying the excited state density for this state as the 1-particle RhoCI density.

 Excited State   2:      Singlet-A      7.4023 eV  167.49 nm  f=0.0185  <S**2>=0.000
      32 -> 34         0.48373
      32 -> 35         0.45263
      33 -> 34         0.16550
      33 -> 35         0.15779

 Excited State   3:      Singlet-A      7.9265 eV  156.42 nm  f=0.0340  <S**2>=0.000
      32 -> 34        -0.44386
      32 -> 35         0.44915
      32 -> 36        -0.17340
      32 -> 38         0.11115
      33 -> 34        -0.15443
      33 -> 35         0.15280

 Excited State   4:      Singlet-A      8.2206 eV  150.82 nm  f=0.0100  <S**2>=0.000
      32 -> 35        -0.17376
      32 -> 36        -0.10669
      33 -> 34         0.24576
      33 -> 35         0.51282
      33 -> 36         0.31302
      33 -> 37         0.11357

 Excited State   5:      Singlet-A      8.3916 eV  147.75 nm  f=0.0039  <S**2>=0.000
      32 -> 34        -0.10380
      32 -> 35         0.16366
      32 -> 36         0.62352
      33 -> 36         0.23817

 Excited State   6:      Singlet-A      8.4466 eV  146.79 nm  f=0.0364  <S**2>=0.000
      32 -> 35         0.10475
      32 -> 36        -0.21376
      33 -> 35        -0.31852
      33 -> 36         0.53746
      33 -> 37        -0.11311
      33 -> 38         0.12784
      33 -> 39         0.11639

 Excited State   7:      Singlet-A      8.5866 eV  144.39 nm  f=0.0617  <S**2>=0.000
      32 -> 37        -0.19869
      33 -> 35        -0.13238
      33 -> 37         0.58757
      33 -> 38         0.17357
      33 -> 39        -0.19194

 Excited State   8:      Singlet-A      8.6449 eV  143.42 nm  f=0.0226  <S**2>=0.000
      32 -> 37         0.57122
      32 -> 38        -0.19266
      32 -> 39         0.23805
      33 -> 37         0.19305

 Excited State   9:      Singlet-A      8.8200 eV  140.57 nm  f=0.0387  <S**2>=0.000
      32 -> 38        -0.20726
      33 -> 35         0.14859
      33 -> 36        -0.10969
      33 -> 38         0.60701
      33 -> 39         0.14911
      33 -> 41         0.10249

 Excited State  10:      Singlet-A      9.0843 eV  136.48 nm  f=0.0280  <S**2>=0.000
      32 -> 37         0.23282
      32 -> 38         0.59856
      32 -> 40         0.11404
      33 -> 38         0.20389

 The electronic state is 1-A.
 Alpha  occ. eigenvalues --  -14.30939 -14.30809 -10.20102 -10.19978 -10.17668
 Alpha  occ. eigenvalues --  -10.17504 -10.17365 -10.17300  -0.87406  -0.87228
 Alpha  occ. eigenvalues --   -0.79048  -0.73645  -0.67936  -0.62548  -0.58950
 Alpha  occ. eigenvalues --   -0.55130  -0.48650  -0.47127  -0.46702  -0.45080
 Alpha  occ. eigenvalues --   -0.43351  -0.41222  -0.40691  -0.38768  -0.37535
 Alpha  occ. eigenvalues --   -0.36055  -0.34237  -0.33361  -0.31820  -0.31352
 Alpha  occ. eigenvalues --   -0.30721  -0.23517  -0.23510
 Alpha virt. eigenvalues --    0.07603   0.09324   0.10190   0.11667   0.12372
 Alpha virt. eigenvalues --    0.14230   0.15151   0.15957   0.17231   0.17560
 Alpha virt. eigenvalues --    0.18164   0.18593   0.19119   0.20547   0.21584

 Mulliken charges:
               1
     1  N   -0.648119
     2  C   -0.018572
     3  C   -0.170940
     4  C   -0.195992
     5  C   -0.112861
     6  C   -0.156583
     7  C   -0.108780
     8  N   -0.076361
     9  H    0.240706
    10  H    0.245143
    11  H    0.083634
    12  H    0.020892
    13  H    0.087627
    14  H    0.086058
    15  H    0.089337
    16  H    0.090783
    17  H   -0.010027
    18  H    0.066912
    19  H    0.062547
    20  H    0.119497
    21  H    0.122160
    22  H    0.133370
    23  H    0.023575
    24  H    0.025995
 Sum of Mulliken charges =  -0.00000

 Dipole moment (field-independent basis, Debye):
    X=              4.0621    Y=             -0.4120    Z=              1.0555  Tot=              4.2171
 Quadrupole moment (field-independent basis, Debye-Ang):
   XX=            -55.5987   YY=            -51.7624   ZZ=            -54.5777
   XY=              2.4824   XZ=              3.3322   YZ=              0.0038

 Summary of Natural Population Analysis:

                                       Natural Population
                Natural  -----------------------------------------------
    Atom  No    Charge         Core      Valence    Rydberg      Total
 -----------------------------------------------------------------------
      N    1   -0.93122      1.99968     5.91665    0.01489     7.93122
      C    2   -0.26233      1.99935     4.24931    0.01367     6.26233
      C    3   -0.47742      1.99933     4.46584    0.01226     6.47742
      C    4   -0.46488      1.99933     4.45334    0.01221     6.46488
      C    5   -0.48312      1.99931     4.46835    0.01546     6.48312
      C    6   -0.45961      1.99926     4.44860    0.01175     6.45961
      C    7   -0.35514      1.99934     4.33775    0.01805     6.35514
      N    8   -0.37439      1.99935     5.35293    0.02211     7.37439
      H    9    0.37636      0.00000     0.61893    0.00471     0.62364
      H   10    0.38529      0.00000     0.61130    0.00341     0.61471
      H   11    0.21429      0.00000     0.78156    0.00415     0.78571
      H   12    0.15560      0.00000     0.81998    0.02442     0.84440
      H   13    0.23685      0.00000     0.76024    0.00291     0.76315
      H   14    0.22124      0.00000     0.77515    0.00361     0.77876
      H   15    0.23538      0.00000     0.76232    0.00230     0.76462
      H   16    0.23725      0.00000     0.76015    0.00259     0.76275
      H   17    0.14752      0.00000     0.81432    0.03816     0.85248
      H   18    0.22568      0.00000     0.76523    0.00908     0.77432
      H   19    0.20272      0.00000     0.77021    0.02707     0.79728
      H   20    0.25374      0.00000     0.74031    0.00596     0.74626
      H   21    0.24196      0.00000     0.74267    0.01537     0.75804
      H   22    0.25635      0.00000     0.73168    0.01196     0.74365
      H   23    0.20468      0.00000     0.71781    0.07750     0.79532
      H   24    0.21315      0.00000     0.70307    0.08378     0.78685
 =======================================================================
   * Total *   -0.00004     15.99495    49.56769    0.43740    66.00004

 1\1\GINC-CN33\SP\RB3LYP TD-FC\6-31G(d,p)\C6H16N2\QDUEZ\09-Jul-2024\0\\
 # TD(NStates=10, Root=1) B3LYP/6-31G** SCRF=(Solvent=water) volume pop
 =NPA density=current Geom=AllCheck Guess=Read\\NAQMVNRVTILPCV-UHFFFAOY
 SA-N_conf_1\\0,1\N,0,-3.2227724879,-0.08839734,1.4539436091\C,0,-2.244
 1536386,-0.3147734443,0.3758805707\C,0,-1.5961800499,1.0058380802,-0.0
 468026569\C,0,-0.6603462006,0.8990366171,-1.2630247296\C,0,0.591935006
 2,0.0211114979,-1.0846055633\C,0,1.5701950427,0.5154054489,-0.01087225
 8\C,0,2.8644053477,-0.311963954,0.0844302606\N,0,2.7234154052,-1.71760

 Normal termination of Gaussian 16 at Tue Jul  9 19:07:29 2024.
