 Gaussian 16, Revision A.03,

 -------------------------------------------------------
 # opt=CalcFc B3LYP/6-31G** SCRF=(Solvent=water) scf=xqc
 -------------------------------------------------------

 ----------------------------------
 GVOYKJPMUUJXBS-UHFFFAOYSA-N_conf_2
 ----------------------------------
 Symbolic Z-matrix:
 Charge =  0 Multiplicity = 1

 SCF Done:  E(RB3LYP) =  -382.291375437     A.U. after   12 cycles
 SCF Done:  E(RB3LYP) =  -382.294699197     A.U. after   10 cycles
 SCF Done:  E(RB3LYP) =  -382.294869435     A.U. after   10 cycles
 SCF Done:  E(RB3LYP) =  -382.294936281     A.U. after    9 cycles
 SCF Done:  E(RB3LYP) =  -382.294940188     A.U. after    8 cycles
 SCF Done:  E(RB3LYP) =  -382.294940282     A.U. after    6 cycles
 Optimization completed.
    -- Stationary point found.
 Normal termination of Gaussian 16 at Thu Jul 11 17:33:59 2024.

 ----------------------------------------------------------------------
 # freq B3LYP/6-31G** SCRF=(Solvent=water) volume NMR pop=NPA density=c
 urrent Geom=AllCheck Guess=Read
 ----------------------------------------------------------------------

 Structure from the checkpoint file:  "GVOYKJPMUUJXBS-UHFFFAOYSA-N_conf_2_1.chk"
 ----------------------------------
 GVOYKJPMUUJXBS-UHFFFAOYSA-N_conf_2
 ----------------------------------
 Charge =  0 Multiplicity = 1

 SCF Done:  E(RB3LYP) =  -382.294940282     A.U. after    1 cycles

      1  N    Isotropic =   234.6020   Anisotropy =    33.0729

      2  C    Isotropic =   143.0731   Anisotropy =    26.5684

      3  C    Isotropic =    71.0496   Anisotropy =   152.4398

      4  C    Isotropic =    67.4363   Anisotropy =   146.8111

      5  C    Isotropic =    81.0569   Anisotropy =   148.4214

      6  C    Isotropic =    68.8291   Anisotropy =   165.6040

      7  C    Isotropic =    82.1451   Anisotropy =   126.7932

      8  C    Isotropic =    48.3727   Anisotropy =   159.6945

      9  N    Isotropic =   196.6040   Anisotropy =    54.8741

     10  H    Isotropic =    31.2424   Anisotropy =    11.9726

     11  H    Isotropic =    30.8970   Anisotropy =    15.3821

     12  H    Isotropic =    27.7387   Anisotropy =     5.2160

     13  H    Isotropic =    27.9211   Anisotropy =     8.3212

     14  H    Isotropic =    24.7249   Anisotropy =     6.1194

     15  H    Isotropic =    25.0951   Anisotropy =     3.5314

     16  H    Isotropic =    24.5796   Anisotropy =     4.0147

     17  H    Isotropic =    25.1564   Anisotropy =     5.8058

     18  H    Isotropic =    28.6392   Anisotropy =    11.8701

     19  H    Isotropic =    25.0367   Anisotropy =    15.6685

  Exact polarizability: 147.107   5.843 133.908  -8.910   1.160  53.330
 Approx polarizability: 169.958  10.656 163.200 -12.491  -0.078  64.486

                      1                      2                      3
                      A                      A                      A
 Frequencies --    114.6050               155.8211               238.4747
 Red. masses --      3.1412                 2.8679                 3.4092
 Frc consts  --      0.0243                 0.0410                 0.1142
 IR Inten    --      5.1241                 6.3468                14.1610

                      4                      5                      6
                      A                      A                      A
 Frequencies --    269.1999               317.0828               383.5231
 Red. masses --      2.0991                 1.5411                 2.8825
 Frc consts  --      0.0896                 0.0913                 0.2498
 IR Inten    --     23.0012                18.1035                 9.1950

                      7                      8                      9
                      A                      A                      A
 Frequencies --    422.2698               463.9445               491.5991
 Red. masses --      3.1640                 2.4877                 1.2401
 Frc consts  --      0.3324                 0.3155                 0.1766
 IR Inten    --      4.2182                32.2834                58.3495

                     10                     11                     12
                      A                      A                      A
 Frequencies --    545.9831               569.8497               610.6194
 Red. masses --      3.3194                 5.3371                 4.4399
 Frc consts  --      0.5830                 1.0211                 0.9754
 IR Inten    --     31.2410                 4.1509                 7.5812

                     13                     14                     15
                      A                      A                      A
 Frequencies --    723.1490               746.1410               761.7393
 Red. masses --      2.2420                 2.2538                 1.5793
 Frc consts  --      0.6908                 0.7393                 0.5399
 IR Inten    --    166.5733                74.8819                51.6399

                     16                     17                     18
                      A                      A                      A
 Frequencies --    776.8822               857.1645               862.4073
 Red. masses --      1.9362                 1.3962                 2.7259
 Frc consts  --      0.6885                 0.6044                 1.1945
 IR Inten    --    310.9109                37.6921                 6.2780

                     19                     20                     21
                      A                      A                      A
 Frequencies --    882.2362               941.4224               972.4247
 Red. masses --      1.4328                 1.3493                 1.2357
 Frc consts  --      0.6571                 0.7046                 0.6884
 IR Inten    --    116.9364                 4.2842                 0.2026

                     22                     23                     24
                      A                      A                      A
 Frequencies --    999.2911              1035.2904              1068.7150
 Red. masses --      2.0815                 2.7474                 2.2250
 Frc consts  --      1.2246                 1.7350                 1.4973
 IR Inten    --     54.5255                15.4270                 4.5877

                     25                     26                     27
                      A                      A                      A
 Frequencies --   1106.2263              1169.0965              1178.3078
 Red. masses --      1.6908                 1.2884                 1.1079
 Frc consts  --      1.2191                 1.0376                 0.9063
 IR Inten    --      9.9823                 8.1541                 1.7646

                     28                     29                     30
                      A                      A                      A
 Frequencies --   1184.2202              1229.7224              1288.1462
 Red. masses --      1.1630                 2.5813                 1.5996
 Frc consts  --      0.9609                 2.2999                 1.5638
 IR Inten    --     21.9904                 0.0523                 5.0796

                     31                     32                     33
                      A                      A                      A
 Frequencies --   1320.2643              1355.8745              1376.1823
 Red. masses --      2.2914                 1.3047                 3.6433
 Frc consts  --      2.3533                 1.4132                 4.0653
 IR Inten    --     64.1246                 8.0911                10.3257

                     34                     35                     36
                      A                      A                      A
 Frequencies --   1421.6235              1501.6157              1506.9924
 Red. masses --      1.4042                 1.8218                 1.3237
 Frc consts  --      1.6721                 2.4203                 1.7711
 IR Inten    --     30.4337                52.1132                 9.0749

                     37                     38                     39
                      A                      A                      A
 Frequencies --   1537.2110              1627.9974              1646.5843
 Red. masses --      2.4937                 3.5306                 1.3191
 Frc consts  --      3.4719                 5.5132                 2.1071
 IR Inten    --     77.2637                 8.9022                42.0550

                     40                     41                     42
                      A                      A                      A
 Frequencies --   1648.8874              1667.4560              2997.6796
 Red. masses --      1.4840                 2.3503                 1.0624
 Frc consts  --      2.3772                 3.8502                 5.6246
 IR Inten    --     47.3552               169.3966               105.0682

                     43                     44                     45
                      A                      A                      A
 Frequencies --   3040.8335              3166.5996              3169.9939
 Red. masses --      1.1004                 1.0865                 1.0885
 Frc consts  --      5.9951                 6.4191                 6.4447
 IR Inten    --     46.3038                31.6126                 6.8531

                     46                     47                     48
                      A                      A                      A
 Frequencies --   3185.2106              3202.9829              3434.5895
 Red. masses --      1.0918                 1.0970                 1.0589
 Frc consts  --      6.5265                 6.6306                 7.3597
 IR Inten    --     45.2102                38.4719               220.3222

                     49                     50                     51
                      A                      A                      A
 Frequencies --   3489.2900              3573.2466              3620.5521
 Red. masses --      1.0503                 1.0930                 1.0883
 Frc consts  --      7.5344                 8.2226                 8.4051
 IR Inten    --      1.1275                 1.0797                45.8805

 - Thermochemistry -
 -------------------
 Temperature   298.150 Kelvin.  Pressure   1.00000 Atm.
 Atom     1 has atomic number  7 and mass  14.00307

 Molecular mass:   122.08440 amu.
 Principal axes and moments of inertia in atomic units:
                           1         2         3
     Eigenvalues --   624.661691297.507201823.72358
           X            0.99989  -0.01494  -0.00118
           Y            0.01495   0.99985   0.00910
           Z            0.00105  -0.00912   0.99996
 This molecule is an asymmetric top.
 Rotational symmetry number  1.
 Warning -- assumption of classical behavior for rotation
           may cause significant error
 Rotational temperatures (Kelvin)      0.13866     0.06675     0.04749
 Rotational constants (GHZ):           2.88915     1.39093     0.98959
 Zero-point vibrational energy     429801.6 (Joules/Mol)
                                  102.72506 (Kcal/Mol)
 Warning -- explicit consideration of  12 degrees of freedom as
           vibrations may cause significant error
 Vibrational temperatures:    164.89   224.19   343.11   387.32   456.21
          (Kelvin)            551.80   607.55   667.51   707.30   785.55
                              819.89   878.55  1040.45  1073.53  1095.97
                             1117.76  1233.27  1240.81  1269.34  1354.50
                             1399.10  1437.76  1489.55  1537.64  1591.61
                             1682.07  1695.32  1703.83  1769.30  1853.36
                             1899.57  1950.80  1980.02  2045.40  2160.49
                             2168.23  2211.70  2342.33  2369.07  2372.38
                             2399.10  4312.99  4375.08  4556.03  4560.91
                             4582.81  4608.38  4941.61  5020.31  5141.10
                             5209.17

 Zero-point correction=                           0.163703 (Hartree/Particle)
 Thermal correction to Energy=                    0.171765
 Thermal correction to Enthalpy=                  0.172710
 Thermal correction to Gibbs Free Energy=         0.131463
 Sum of electronic and zero-point Energies=           -382.131237
 Sum of electronic and thermal Energies=              -382.123175
 Sum of electronic and thermal Enthalpies=            -382.122231
 Sum of electronic and thermal Free Energies=         -382.163477

                     E (Thermal)             CV                S
                      KCal/Mol        Cal/Mol-Kelvin    Cal/Mol-Kelvin
 Total                  107.784             32.323             86.810
 Electronic               0.000              0.000              0.000
 Translational            0.889              2.981             40.313
 Rotational               0.889              2.981             28.782
 Vibrational            106.007             26.362             17.716
 Vibration     1          0.608              1.937              3.189
 Vibration     2          0.620              1.896              2.600
 Vibration     3          0.656              1.782              1.814
 Vibration     4          0.674              1.730              1.601
 Vibration     5          0.704              1.641              1.325
 Vibration     6          0.753              1.505              1.025
 Vibration     7          0.785              1.422              0.884
 Vibration     8          0.821              1.330              0.755
 Vibration     9          0.847              1.269              0.679
 Vibration    10          0.901              1.148              0.553
 Vibration    11          0.926              1.096              0.505
 Vibration    12          0.970              1.009              0.432

 Optimization completed.
    -- Stationary point found.
 Normal termination of Gaussian 16 at Thu Jul 11 17:46:34 2024.
 Gaussian 16:  EM64L-G16RevA.03 25-Dec-2016

 ----------------------------------------------------------------------
 # TD(NStates=10, Root=1) B3LYP/6-31G** SCRF=(Solvent=water) volume pop
 =NPA density=current Geom=AllCheck Guess=Read
 ----------------------------------------------------------------------

 Structure from the checkpoint file:  "GVOYKJPMUUJXBS-UHFFFAOYSA-N_conf_2_2.chk"
 ----------------------------------
 GVOYKJPMUUJXBS-UHFFFAOYSA-N_conf_2
 ----------------------------------
 Charge =  0 Multiplicity = 1

                         Standard orientation:
 ---------------------------------------------------------------------
 Center     Atomic      Atomic             Coordinates (Angstroms)
 Number     Number       Type             X           Y           Z
 ---------------------------------------------------------------------
      1          7           0        2.627901   -0.284037    0.577105
      2          6           0        1.724166   -0.869473   -0.435675
      3          6           0        0.280229   -0.487610   -0.191304
      4          6           0       -0.709105   -1.467832   -0.083089
      5          6           0       -2.056560   -1.141193    0.093165
      6          6           0       -2.419262    0.204917    0.168266
      7          6           0       -1.450504    1.203115    0.075597
      8          6           0       -0.094151    0.878404   -0.104739
      9          7           0        0.875976    1.868990   -0.254617
     10          1           0        2.434389   -0.704439    1.483882
     11          1           0        3.590157   -0.525584    0.350364
     12          1           0        2.045214   -0.470785   -1.407909
     13          1           0        1.797870   -1.964907   -0.502537
     14          1           0       -0.412257   -2.512662   -0.143418
     15          1           0       -2.805815   -1.922789    0.171360
     16          1           0       -3.460133    0.484039    0.308521
     17          1           0       -1.737377    2.249937    0.143532
     18          1           0        0.593968    2.779506    0.086758
     19          1           0        1.777976    1.571043    0.118709
 ---------------------------------------------------------------------

 SCF Done:  E(RB3LYP) =  -382.294940282     A.U. after    1 cycles

 Excitation energies and oscillator strengths:

 Excited State   1:      Singlet-A      4.7096 eV  263.26 nm  f=0.0989  <S**2>=0.000
      32 -> 35         0.18149
      33 -> 34         0.67522
 This state for optimization and/or second-order correction.
 Total Energy, E(TD-HF/TD-DFT) =  -382.121867060
 Copying the excited state density for this state as the 1-particle RhoCI density.

 Excited State   2:      Singlet-A      5.4417 eV  227.84 nm  f=0.2627  <S**2>=0.000
      32 -> 34        -0.16373
      33 -> 35         0.67457

 Excited State   3:      Singlet-A      5.9193 eV  209.46 nm  f=0.0292  <S**2>=0.000
      31 -> 34         0.58859
      32 -> 34         0.37824

 Excited State   4:      Singlet-A      6.2928 eV  197.03 nm  f=0.3074  <S**2>=0.000
      30 -> 34        -0.11416
      31 -> 34         0.16423
      31 -> 35         0.27890
      32 -> 34        -0.25174
      32 -> 35         0.53978
      33 -> 34        -0.12295

 Excited State   5:      Singlet-A      6.4422 eV  192.46 nm  f=0.4723  <S**2>=0.000
      31 -> 34        -0.18985
      31 -> 35         0.52343
      32 -> 34         0.38712
      33 -> 35         0.15123

 Excited State   6:      Singlet-A      6.5063 eV  190.56 nm  f=0.3316  <S**2>=0.000
      30 -> 34        -0.16165
      31 -> 34        -0.28018
      31 -> 35        -0.35080
      32 -> 34         0.32281
      32 -> 35         0.36282
      33 -> 34        -0.11594
      33 -> 36         0.11424

 Excited State   7:      Singlet-A      7.0004 eV  177.11 nm  f=0.0525  <S**2>=0.000
      33 -> 36         0.66770
      33 -> 37        -0.11692
      33 -> 38         0.13848

 Excited State   8:      Singlet-A      7.3228 eV  169.31 nm  f=0.0110  <S**2>=0.000
      33 -> 36         0.10698
      33 -> 37         0.68846

 Excited State   9:      Singlet-A      7.5561 eV  164.08 nm  f=0.1417  <S**2>=0.000
      29 -> 34         0.15104
      30 -> 34         0.46814
      32 -> 35         0.11134
      33 -> 38        -0.45845

 Excited State  10:      Singlet-A      7.5947 eV  163.25 nm  f=0.1935  <S**2>=0.000
      29 -> 34         0.12691
      30 -> 34         0.40373
      32 -> 35         0.12814
      33 -> 36        -0.14243
      33 -> 38         0.50891

 The electronic state is 1-A.
 Alpha  occ. eigenvalues --  -14.32290 -14.32071 -10.22111 -10.21155 -10.18406
 Alpha  occ. eigenvalues --  -10.18386 -10.18309 -10.17774 -10.17495  -0.91114
 Alpha  occ. eigenvalues --   -0.87704  -0.82773  -0.74963  -0.71767  -0.65628
 Alpha  occ. eigenvalues --   -0.59959  -0.57434  -0.50865  -0.50170  -0.48696
 Alpha  occ. eigenvalues --   -0.45648  -0.43789  -0.42320  -0.41468  -0.39983
 Alpha  occ. eigenvalues --   -0.38723  -0.36674  -0.34233  -0.33071  -0.30322
 Alpha  occ. eigenvalues --   -0.24879  -0.24114  -0.19811
 Alpha virt. eigenvalues --    0.00286   0.01755   0.08967   0.10664   0.11779
 Alpha virt. eigenvalues --    0.14173   0.14835   0.16630   0.17071   0.18104
 Alpha virt. eigenvalues --    0.18464   0.20325   0.21753   0.24009   0.25509

 Mulliken charges:
               1
     1  N   -0.620560
     2  C   -0.130895
     3  C    0.083101
     4  C   -0.209199
     5  C   -0.066708
     6  C   -0.169736
     7  C   -0.144635
     8  C    0.211701
     9  N   -0.573371
    10  H    0.250053
    11  H    0.244478
    12  H    0.107250
    13  H    0.095447
    14  H    0.066064
    15  H    0.094966
    16  H    0.068844
    17  H    0.075638
    18  H    0.305522
    19  H    0.312038
 Sum of Mulliken charges =  -0.00000

 Dipole moment (field-independent basis, Debye):
    X=              3.3842    Y=              1.3463    Z=              0.9859  Tot=              3.7733
 Quadrupole moment (field-independent basis, Debye-Ang):
   XX=            -48.1651   YY=            -44.4821   ZZ=            -56.5769
   XY=             -0.6263   XZ=              0.9301   YZ=              0.6037

 Summary of Natural Population Analysis:

                                       Natural Population
                Natural  -----------------------------------------------
    Atom  No    Charge         Core      Valence    Rydberg      Total
 -----------------------------------------------------------------------
      N    1   -0.93884      1.99967     5.92422    0.01495     7.93884
      C    2   -0.28690      1.99931     4.27161    0.01598     6.28690
      C    3   -0.14507      1.99898     4.12639    0.01969     6.14507
      C    4   -0.33655      1.99908     4.31928    0.01819     6.33655
      C    5   -0.15016      1.99911     4.13627    0.01477     6.15016
      C    6   -0.35616      1.99915     4.33743    0.01959     6.35616
      C    7   -0.32529      1.99907     4.30727    0.01895     6.32529
      C    8    0.18525      1.99893     3.79749    0.01833     5.81475
      N    9   -0.66918      1.99944     5.66029    0.00944     7.66918
      H   10    0.39180      0.00000     0.60340    0.00479     0.60820
      H   11    0.38848      0.00000     0.60547    0.00605     0.61152
      H   12    0.22706      0.00000     0.76927    0.00367     0.77294
      H   13    0.22138      0.00000     0.77632    0.00230     0.77862
      H   14    0.22839      0.00000     0.76991    0.00170     0.77161
      H   15    0.23732      0.00000     0.76126    0.00143     0.76268
      H   16    0.23106      0.00000     0.76746    0.00148     0.76894
      H   17    0.23081      0.00000     0.76729    0.00189     0.76919
      H   18    0.42490      0.00000     0.57255    0.00255     0.57510
      H   19    0.44169      0.00000     0.55350    0.00481     0.55831
 =======================================================================
   * Total *    0.00000     17.99274    47.82670    0.18056    66.00000

 1\1\GINC-CN36\SP\RB3LYP TD-FC\6-31G(d,p)\C7H10N2\QDUEZ\11-Jul-2024\0\\
 # TD(NStates=10, Root=1) B3LYP/6-31G** SCRF=(Solvent=water) volume pop
 =NPA density=current Geom=AllCheck Guess=Read\\GVOYKJPMUUJXBS-UHFFFAOY
 SA-N_conf_2\\0,1\N,0,2.3394008822,0.881691826,0.5580382051\C,0,1.79878
 60043,-0.1386014166,-0.3649641576\C,0,0.3150213271,-0.3551728921,-0.15
 99537946\C,0,-0.1935348869,-1.633929246,0.0797916909\C,0,-1.563733143,
 -1.8690772306,0.2235181771\C,0,-2.4458446004,-0.7909998045,0.129544685
 8\C,0,-1.9640763746,0.4974481225,-0.096908915\C,0,-0.5863615618,0.7374

 Normal termination of Gaussian 16 at Thu Jul 11 18:03:09 2024.
