 Gaussian 16, Revision A.03,

 -------------------------------------------------------
 # opt=CalcFc B3LYP/6-31G** SCRF=(Solvent=water) scf=xqc
 -------------------------------------------------------

 ----------------------------------
 GVOYKJPMUUJXBS-UHFFFAOYSA-N_conf_0
 ----------------------------------
 Symbolic Z-matrix:
 Charge =  0 Multiplicity = 1

 SCF Done:  E(RB3LYP) =  -382.287620316     A.U. after   12 cycles
 SCF Done:  E(RB3LYP) =  -382.290716834     A.U. after   10 cycles
 SCF Done:  E(RB3LYP) =  -382.290850965     A.U. after   10 cycles
 SCF Done:  E(RB3LYP) =  -382.290853398     A.U. after    8 cycles
 SCF Done:  E(RB3LYP) =  -382.290853534     A.U. after    7 cycles
 Optimization completed.
    -- Stationary point found.
 Normal termination of Gaussian 16 at Thu Jul 11 17:38:39 2024.

 ----------------------------------------------------------------------
 # freq B3LYP/6-31G** SCRF=(Solvent=water) volume NMR pop=NPA density=c
 urrent Geom=AllCheck Guess=Read
 ----------------------------------------------------------------------

 Structure from the checkpoint file:  "GVOYKJPMUUJXBS-UHFFFAOYSA-N_conf_0_1.chk"
 ----------------------------------
 GVOYKJPMUUJXBS-UHFFFAOYSA-N_conf_0
 ----------------------------------
 Charge =  0 Multiplicity = 1

 SCF Done:  E(RB3LYP) =  -382.290853534     A.U. after    1 cycles

      1  N    Isotropic =   235.7990   Anisotropy =    35.1141

      2  C    Isotropic =   144.6003   Anisotropy =    28.3038

      3  C    Isotropic =    67.0630   Anisotropy =   157.6240

      4  C    Isotropic =    67.7129   Anisotropy =   145.5645

      5  C    Isotropic =    78.9413   Anisotropy =   152.0418

      6  C    Isotropic =    68.9996   Anisotropy =   164.9173

      7  C    Isotropic =    81.3822   Anisotropy =   128.5501

      8  C    Isotropic =    51.5928   Anisotropy =   155.4516

      9  N    Isotropic =   202.5814   Anisotropy =    50.2628

     10  H    Isotropic =    31.7591   Anisotropy =    12.5314

     11  H    Isotropic =    29.8727   Anisotropy =    12.2441

     12  H    Isotropic =    28.0262   Anisotropy =     5.4220

     13  H    Isotropic =    28.4723   Anisotropy =     7.3632

     14  H    Isotropic =    24.7104   Anisotropy =     6.2346

     15  H    Isotropic =    24.9710   Anisotropy =     3.6113

     16  H    Isotropic =    24.5611   Anisotropy =     4.0128

     17  H    Isotropic =    25.0587   Anisotropy =     5.8568

     18  H    Isotropic =    28.6338   Anisotropy =    12.8552

     19  H    Isotropic =    28.4693   Anisotropy =    10.1999

  Exact polarizability: 141.429   7.477 133.477 -10.483   3.295  55.777
 Approx polarizability: 166.078  11.194 163.192 -13.242   5.024  66.789

                      1                      2                      3
                      A                      A                      A
 Frequencies --    103.4516               130.1879               215.8665
 Red. masses --      3.0375                 3.7917                 3.5848
 Frc consts  --      0.0192                 0.0379                 0.0984
 IR Inten    --      1.1924                 2.5039                 1.3404

                      4                      5                      6
                      A                      A                      A
 Frequencies --    274.0621               339.0801               343.5347
 Red. masses --      1.4644                 1.7707                 1.1914
 Frc consts  --      0.0648                 0.1200                 0.0828
 IR Inten    --     41.8112                39.8806                35.7540

                      7                      8                      9
                      A                      A                      A
 Frequencies --    370.8179               424.6234               476.4323
 Red. masses --      2.3060                 2.8256                 3.1722
 Frc consts  --      0.1868                 0.3002                 0.4242
 IR Inten    --     18.3914                 3.8452                24.6088

                     10                     11                     12
                      A                      A                      A
 Frequencies --    529.4931               571.7713               610.3659
 Red. masses --      3.2776                 5.2337                 4.4981
 Frc consts  --      0.5414                 1.0081                 0.9873
 IR Inten    --     24.6403                 6.7113                15.3070

                     13                     14                     15
                      A                      A                      A
 Frequencies --    682.5630               741.2966               758.9771
 Red. masses --      1.4563                 3.1157                 3.5233
 Frc consts  --      0.3997                 1.0088                 1.1958
 IR Inten    --    370.5481                 8.0009                59.2267

                     16                     17                     18
                      A                      A                      A
 Frequencies --    769.6510               849.1504               869.6539
 Red. masses --      1.4102                 2.0246                 1.8025
 Frc consts  --      0.4922                 0.8601                 0.8032
 IR Inten    --     73.5738                17.2815                35.5910

                     19                     20                     21
                      A                      A                      A
 Frequencies --    898.6912               941.5988               945.5639
 Red. masses --      1.5032                 1.3861                 2.4520
 Frc consts  --      0.7153                 0.7241                 1.2917
 IR Inten    --      0.5423                29.4400               260.5902

                     22                     23                     24
                      A                      A                      A
 Frequencies --    975.0811              1062.2433              1078.3972
 Red. masses --      1.2399                 2.1699                 1.8167
 Frc consts  --      0.6946                 1.4426                 1.2448
 IR Inten    --      0.3811                 0.9514                 5.4539

                     25                     26                     27
                      A                      A                      A
 Frequencies --   1101.3940              1150.0623              1180.4254
 Red. masses --      2.0531                 1.2553                 1.1452
 Frc consts  --      1.4674                 0.9782                 0.9402
 IR Inten    --     68.9511                 6.6396                 6.9116

                     28                     29                     30
                      A                      A                      A
 Frequencies --   1183.1581              1213.8540              1293.5211
 Red. masses --      1.1144                 3.1762                 2.8564
 Frc consts  --      0.9191                 2.7573                 2.8159
 IR Inten    --     11.6739                 8.9061                59.2893

                     31                     32                     33
                      A                      A                      A
 Frequencies --   1337.2172              1363.6703              1374.5446
 Red. masses --      1.4698                 4.1413                 1.2852
 Frc consts  --      1.5485                 4.5374                 1.4307
 IR Inten    --      8.9813                 8.2305                32.0747

                     34                     35                     36
                      A                      A                      A
 Frequencies --   1401.6702              1494.5678              1502.9475
 Red. masses --      1.2372                 1.7577                 1.3333
 Frc consts  --      1.4321                 2.3133                 1.7744
 IR Inten    --      4.0244                23.1262                13.9745

                     37                     38                     39
                      A                      A                      A
 Frequencies --   1535.5968              1632.0091              1648.9156
 Red. masses --      2.5127                 5.8882                 1.9309
 Frc consts  --      3.4910                 9.2401                 3.0932
 IR Inten    --     80.5742                21.1600                17.3341

                     40                     41                     42
                      A                      A                      A
 Frequencies --   1665.8481              1671.8129              3021.6485
 Red. masses --      1.6606                 1.1644                 1.0674
 Frc consts  --      2.7152                 1.9175                 5.7423
 IR Inten    --    116.4739                60.5073                79.3089

                     43                     44                     45
                      A                      A                      A
 Frequencies --   3084.2005              3167.5906              3171.9454
 Red. masses --      1.0969                 1.0872                 1.0882
 Frc consts  --      6.1476                 6.4271                 6.4507
 IR Inten    --     46.0883                29.6514                 7.6178

                     46                     47                     48
                      A                      A                      A
 Frequencies --   3187.7043              3204.0360              3472.3869
 Red. masses --      1.0914                 1.0973                 1.0505
 Frc consts  --      6.5344                 6.6370                 7.4626
 IR Inten    --     39.0322                37.0501                 1.6125

                     49                     50                     51
                      A                      A                      A
 Frequencies --   3544.7558              3548.2971              3640.6869
 Red. masses --      1.0492                 1.0912                 1.0968
 Frc consts  --      7.7672                 8.0945                 8.5656
 IR Inten    --     17.7794                 1.3176                19.2513

 - Thermochemistry -
 -------------------
 Temperature   298.150 Kelvin.  Pressure   1.00000 Atm.
 Atom     1 has atomic number  7 and mass  14.00307

 Molecular mass:   122.08440 amu.
 Principal axes and moments of inertia in atomic units:
                           1         2         3
     Eigenvalues --   663.750171282.331291813.62987
           X            0.99998   0.00003  -0.00613
           Y           -0.00004   1.00000  -0.00262
           Z            0.00613   0.00262   0.99998
 This molecule is an asymmetric top.
 Rotational symmetry number  1.
 Warning -- assumption of classical behavior for rotation
           may cause significant error
 Rotational temperatures (Kelvin)      0.13049     0.06754     0.04776
 Rotational constants (GHZ):           2.71901     1.40739     0.99510
 Zero-point vibrational energy     429202.3 (Joules/Mol)
                                  102.58181 (Kcal/Mol)
 Warning -- explicit consideration of  12 degrees of freedom as
           vibrations may cause significant error
 Vibrational temperatures:    148.84   187.31   310.58   394.31   487.86
          (Kelvin)            494.27   533.52   610.94   685.48   761.82
                              822.65   878.18   982.06  1066.56  1092.00
                             1107.36  1221.74  1251.24  1293.02  1354.75
                             1360.46  1402.92  1528.33  1551.57  1584.66
                             1654.68  1698.37  1702.30  1746.47  1861.09
                             1923.96  1962.02  1977.66  2016.69  2150.35
                             2162.41  2209.38  2348.10  2372.42  2396.78
                             2405.37  4347.48  4437.48  4557.46  4563.72
                             4586.40  4609.89  4995.99  5100.11  5105.21
                             5238.14

 Zero-point correction=                           0.163475 (Hartree/Particle)
 Thermal correction to Energy=                    0.171777
 Thermal correction to Enthalpy=                  0.172721
 Thermal correction to Gibbs Free Energy=         0.130881
 Sum of electronic and zero-point Energies=           -382.127379
 Sum of electronic and thermal Energies=              -382.119076
 Sum of electronic and thermal Enthalpies=            -382.118132
 Sum of electronic and thermal Free Energies=         -382.159973

                     E (Thermal)             CV                S
                      KCal/Mol        Cal/Mol-Kelvin    Cal/Mol-Kelvin
 Total                  107.792             32.815             88.061
 Electronic               0.000              0.000              0.000
 Translational            0.889              2.981             40.313
 Rotational               0.889              2.981             28.825
 Vibrational            106.014             26.853             18.924
 Vibration     1          0.605              1.946              3.388
 Vibration     2          0.612              1.923              2.943
 Vibration     3          0.645              1.817              1.993
 Vibration     4          0.676              1.721              1.570
 Vibration     5          0.719              1.597              1.216
 Vibration     6          0.722              1.588              1.196
 Vibration     7          0.743              1.532              1.076
 Vibration     8          0.787              1.417              0.876
 Vibration     9          0.833              1.302              0.720
 Vibration    10          0.884              1.185              0.588
 Vibration    11          0.928              1.092              0.501
 Vibration    12          0.969              1.010              0.432

 Optimization completed.
    -- Stationary point found.
 Normal termination of Gaussian 16 at Thu Jul 11 17:54:49 2024.
 Gaussian 16:  EM64L-G16RevA.03 25-Dec-2016

 ----------------------------------------------------------------------
 # TD(NStates=10, Root=1) B3LYP/6-31G** SCRF=(Solvent=water) volume pop
 =NPA density=current Geom=AllCheck Guess=Read
 ----------------------------------------------------------------------

 Structure from the checkpoint file:  "GVOYKJPMUUJXBS-UHFFFAOYSA-N_conf_0_2.chk"
 ----------------------------------
 GVOYKJPMUUJXBS-UHFFFAOYSA-N_conf_0
 ----------------------------------
 Charge =  0 Multiplicity = 1

                         Standard orientation:
 ---------------------------------------------------------------------
 Center     Atomic      Atomic             Coordinates (Angstroms)
 Number     Number       Type             X           Y           Z
 ---------------------------------------------------------------------
      1          7           0        2.665052   -0.512033    0.688543
      2          6           0        1.788836   -0.754677   -0.476772
      3          6           0        0.318089   -0.437803   -0.272614
      4          6           0       -0.626375   -1.465544   -0.190109
      5          6           0       -1.977515   -1.211801    0.058857
      6          6           0       -2.395876    0.108277    0.231027
      7          6           0       -1.477247    1.153663    0.142423
      8          6           0       -0.119482    0.899765   -0.110039
      9          7           0        0.804639    1.956735   -0.131299
     10          1           0        2.298318   -1.046329    1.475350
     11          1           0        2.563001    0.463647    0.966385
     12          1           0        2.196131   -0.178870   -1.319250
     13          1           0        1.888313   -1.807808   -0.759411
     14          1           0       -0.287697   -2.490912   -0.321825
     15          1           0       -2.687995   -2.030407    0.118974
     16          1           0       -3.441100    0.331712    0.425828
     17          1           0       -1.809104    2.181797    0.266373
     18          1           0        0.374119    2.866610   -0.246703
     19          1           0        1.555598    1.846354   -0.803078
 ---------------------------------------------------------------------

 SCF Done:  E(RB3LYP) =  -382.290853534     A.U. after    1 cycles

 Excitation energies and oscillator strengths:

 Excited State   1:      Singlet-A      4.8298 eV  256.71 nm  f=0.0852  <S**2>=0.000
      31 -> 35         0.14511
      32 -> 35        -0.17783
      33 -> 34         0.66039
 This state for optimization and/or second-order correction.
 Total Energy, E(TD-HF/TD-DFT) =  -382.113363457
 Copying the excited state density for this state as the 1-particle RhoCI density.

 Excited State   2:      Singlet-A      5.4745 eV  226.48 nm  f=0.1647  <S**2>=0.000
      32 -> 34         0.29562
      33 -> 34        -0.11390
      33 -> 35         0.62570

 Excited State   3:      Singlet-A      5.7340 eV  216.23 nm  f=0.2493  <S**2>=0.000
      31 -> 34         0.33669
      32 -> 34         0.56483
      33 -> 35        -0.24874

 Excited State   4:      Singlet-A      6.0214 eV  205.91 nm  f=0.1213  <S**2>=0.000
      31 -> 35         0.21176
      32 -> 35         0.65395
      33 -> 34         0.12183

 Excited State   5:      Singlet-A      6.4636 eV  191.82 nm  f=0.5355  <S**2>=0.000
      30 -> 34         0.11657
      31 -> 34         0.45624
      31 -> 35        -0.40994
      32 -> 34        -0.19780
      33 -> 34         0.12467
      33 -> 35         0.15808
      33 -> 36        -0.12261

 Excited State   6:      Singlet-A      6.5639 eV  188.89 nm  f=0.3554  <S**2>=0.000
      30 -> 34        -0.12362
      31 -> 34         0.40403
      31 -> 35         0.45829
      32 -> 34        -0.21030
      32 -> 35        -0.12237
      33 -> 34        -0.10453
      33 -> 36         0.15993

 Excited State   7:      Singlet-A      6.7148 eV  184.64 nm  f=0.0590  <S**2>=0.000
      31 -> 35        -0.17111
      33 -> 36         0.67149

 Excited State   8:      Singlet-A      7.4130 eV  167.25 nm  f=0.0029  <S**2>=0.000
      32 -> 36        -0.11972
      33 -> 37         0.68613

 Excited State   9:      Singlet-A      7.4853 eV  165.64 nm  f=0.0067  <S**2>=0.000
      31 -> 36         0.16052
      32 -> 36         0.65519
      33 -> 37         0.12989

 Excited State  10:      Singlet-A      7.6966 eV  161.09 nm  f=0.3145  <S**2>=0.000
      30 -> 34         0.65472
      31 -> 35         0.13499
      32 -> 35        -0.10194
      33 -> 38         0.12409

 The electronic state is 1-A.
 Alpha  occ. eigenvalues --  -14.33901 -14.31203 -10.22613 -10.21059 -10.18633
 Alpha  occ. eigenvalues --  -10.18589 -10.18509 -10.18198 -10.17834  -0.91796
 Alpha  occ. eigenvalues --   -0.87484  -0.83154  -0.74967  -0.72269  -0.65805
 Alpha  occ. eigenvalues --   -0.60406  -0.58011  -0.51407  -0.50936  -0.47469
 Alpha  occ. eigenvalues --   -0.46742  -0.43141  -0.42720  -0.41509  -0.41000
 Alpha  occ. eigenvalues --   -0.37670  -0.36369  -0.34883  -0.33825  -0.30884
 Alpha  occ. eigenvalues --   -0.25295  -0.23444  -0.20559
 Alpha virt. eigenvalues --    0.00091   0.01298   0.07799   0.10377   0.11598
 Alpha virt. eigenvalues --    0.12567   0.14420   0.16201   0.16587   0.18243
 Alpha virt. eigenvalues --    0.19188   0.20698   0.21224   0.24272   0.26202

 Mulliken charges:
               1
     1  N   -0.610567
     2  C   -0.161678
     3  C    0.086926
     4  C   -0.203608
     5  C   -0.066155
     6  C   -0.163999
     7  C   -0.141920
     8  C    0.205647
     9  N   -0.585624
    10  H    0.241894
    11  H    0.241408
    12  H    0.102687
    13  H    0.108532
    14  H    0.069717
    15  H    0.097408
    16  H    0.074216
    17  H    0.081200
    18  H    0.310587
    19  H    0.313328
 Sum of Mulliken charges =   0.00000

 Dipole moment (field-independent basis, Debye):
    X=              0.3911    Y=              3.6784    Z=             -0.9029  Tot=              3.8077
 Quadrupole moment (field-independent basis, Debye-Ang):
   XX=            -61.5502   YY=            -42.0344   ZZ=            -54.7365
   XY=              5.2546   XZ=             -2.5542   YZ=             -2.9455

 Summary of Natural Population Analysis:

                                       Natural Population
                Natural  -----------------------------------------------
    Atom  No    Charge         Core      Valence    Rydberg      Total
 -----------------------------------------------------------------------
      N    1   -0.91295      1.99971     5.89783    0.01541     7.91295
      C    2   -0.29824      1.99931     4.28026    0.01867     6.29824
      C    3   -0.14651      1.99897     4.12909    0.01845     6.14651
      C    4   -0.33161      1.99909     4.31435    0.01817     6.33161
      C    5   -0.15202      1.99912     4.13783    0.01508     6.15202
      C    6   -0.34375      1.99915     4.32498    0.01962     6.34375
      C    7   -0.32247      1.99907     4.30447    0.01893     6.32247
      C    8    0.18651      1.99891     3.79646    0.01812     5.81349
      N    9   -0.69773      1.99947     5.68808    0.01018     7.69773
      H   10    0.38171      0.00000     0.61431    0.00398     0.61829
      H   11    0.37978      0.00000     0.61575    0.00447     0.62022
      H   12    0.22216      0.00000     0.77539    0.00246     0.77784
      H   13    0.23948      0.00000     0.75845    0.00208     0.76052
      H   14    0.22923      0.00000     0.76909    0.00168     0.77077
      H   15    0.23829      0.00000     0.76027    0.00144     0.76171
      H   16    0.23320      0.00000     0.76533    0.00148     0.76680
      H   17    0.23266      0.00000     0.76550    0.00183     0.76734
      H   18    0.43140      0.00000     0.56572    0.00288     0.56860
      H   19    0.43087      0.00000     0.56691    0.00222     0.56913
 =======================================================================
   * Total *   -0.00000     17.99279    47.83006    0.17716    66.00000

 1\1\GINC-CN34\SP\RB3LYP TD-FC\6-31G(d,p)\C7H10N2\QDUEZ\11-Jul-2024\0\\
 # TD(NStates=10, Root=1) B3LYP/6-31G** SCRF=(Solvent=water) volume pop
 =NPA density=current Geom=AllCheck Guess=Read\\GVOYKJPMUUJXBS-UHFFFAOY
 SA-N_conf_0\\0,1\N,0,2.7195692102,-0.0242363225,-0.0656075939\C,0,1.60
 77660148,-0.3308640566,-0.989979828\C,0,0.2215090473,-0.3467956056,-0.
 3709296575\C,0,-0.4686392221,-1.5511038068,-0.2023855695\C,0,-1.718459
 5581,-1.6079797607,0.4194371817\C,0,-2.2942610931,-0.4259397369,0.8868
 867155\C,0,-1.6332750019,0.7907736906,0.7217569404\C,0,-0.3781532552,0

 Normal termination of Gaussian 16 at Thu Jul 11 18:17:50 2024.
