 Gaussian 16, Revision A.03,

 -------------------------------------------------------
 # opt=CalcFc B3LYP/6-31G** SCRF=(Solvent=water) scf=xqc
 -------------------------------------------------------

 ----------------------------------
 KDXKERNSBIXSRK-YFKPBYRVSA-N_conf_2
 ----------------------------------
 Symbolic Z-matrix:
 Charge =  0 Multiplicity = 1

 SCF Done:  E(RB3LYP) =  -497.057044223     A.U. after   12 cycles
 SCF Done:  E(RB3LYP) =  -497.060180546     A.U. after   10 cycles
 SCF Done:  E(RB3LYP) =  -497.060308145     A.U. after   10 cycles
 SCF Done:  E(RB3LYP) =  -497.060311158     A.U. after    8 cycles
 SCF Done:  E(RB3LYP) =  -497.060311701     A.U. after    8 cycles
 SCF Done:  E(RB3LYP) =  -497.060311734     A.U. after    7 cycles
 Optimization completed.
    -- Stationary point found.
 Normal termination of Gaussian 16 at Thu Jul 18 05:28:19 2024.

 ----------------------------------------------------------------------
 # freq B3LYP/6-31G** SCRF=(Solvent=water) volume NMR pop=NPA density=c
 urrent Geom=AllCheck Guess=Read
 ----------------------------------------------------------------------

 Structure from the checkpoint file:  "KDXKERNSBIXSRK-YFKPBYRVSA-N_conf_2_1.chk"
 ----------------------------------
 KDXKERNSBIXSRK-YFKPBYRVSA-N_conf_2
 ----------------------------------
 Charge =  0 Multiplicity = 1

 SCF Done:  E(RB3LYP) =  -497.060311734     A.U. after    1 cycles

      1  N    Isotropic =   228.4219   Anisotropy =    28.2521

      2  C    Isotropic =   132.6282   Anisotropy =    21.7032

      3  C    Isotropic =   157.2223   Anisotropy =    18.5539

      4  C    Isotropic =   161.2692   Anisotropy =    21.6657

      5  C    Isotropic =   155.6408   Anisotropy =    36.0671

      6  C    Isotropic =   146.0280   Anisotropy =    37.9279

      7  N    Isotropic =   232.6646   Anisotropy =    33.7742

      8  C    Isotropic =    19.5821   Anisotropy =    99.0851

      9  O    Isotropic =   149.0327   Anisotropy =   170.7371

     10  O    Isotropic =   -39.6240   Anisotropy =   525.6050

     11  H    Isotropic =    30.7521   Anisotropy =    15.1969

     12  H    Isotropic =    30.9473   Anisotropy =    10.9846

     13  H    Isotropic =    28.3842   Anisotropy =     5.2758

     14  H    Isotropic =    30.4729   Anisotropy =     4.4559

     15  H    Isotropic =    29.7654   Anisotropy =     7.8516

     16  H    Isotropic =    30.2850   Anisotropy =     5.2232

     17  H    Isotropic =    30.1440   Anisotropy =     7.6634

     18  H    Isotropic =    29.1997   Anisotropy =     7.5786

     19  H    Isotropic =    30.4449   Anisotropy =     4.6053

     20  H    Isotropic =    28.8337   Anisotropy =     5.7755

     21  H    Isotropic =    29.3902   Anisotropy =     5.2844

     22  H    Isotropic =    31.5662   Anisotropy =    11.7278

     23  H    Isotropic =    31.0699   Anisotropy =    15.6540

     24  H    Isotropic =    25.4982   Anisotropy =    12.6790

  Exact polarizability: 117.833  -1.347 106.297  -1.829  -3.464  89.416
 Approx polarizability: 116.288   0.972 122.777  -2.145  -7.614 104.003

                      1                      2                      3
                      A                      A                      A
 Frequencies --     32.0509                42.0341                68.8427
 Red. masses --      4.0356                 6.3955                 2.9834
 Frc consts  --      0.0024                 0.0067                 0.0083
 IR Inten    --      0.9654                 2.7974                 3.7857

                      4                      5                      6
                      A                      A                      A
 Frequencies --     78.4520               141.4542               167.4126
 Red. masses --      2.1446                 2.4205                 3.8865
 Frc consts  --      0.0078                 0.0285                 0.0642
 IR Inten    --      7.0913                 1.9599                 2.2919

                      7                      8                      9
                      A                      A                      A
 Frequencies --    196.0704               228.6216               250.3360
 Red. masses --      2.6505                 1.2634                 2.2256
 Frc consts  --      0.0600                 0.0389                 0.0822
 IR Inten    --      2.0804                65.4464                 7.9372

                     10                     11                     12
                      A                      A                      A
 Frequencies --    266.8596               306.3992               361.0276
 Red. masses --      1.2456                 3.2137                 3.1224
 Frc consts  --      0.0523                 0.1778                 0.2398
 IR Inten    --     67.5109                15.4966                10.6908

                     13                     14                     15
                      A                      A                      A
 Frequencies --    435.8421               450.1230               513.4545
 Red. masses --      2.8273                 3.6879                 2.8349
 Frc consts  --      0.3164                 0.4402                 0.4403
 IR Inten    --     16.7495                23.0076                16.9146

                     16                     17                     18
                      A                      A                      A
 Frequencies --    583.9385               649.1056               723.1494
 Red. masses --      1.2978                 3.0770                 2.9992
 Frc consts  --      0.2607                 0.7639                 0.9241
 IR Inten    --    132.6926                32.4117                45.6003

                     19                     20                     21
                      A                      A                      A
 Frequencies --    760.5437               823.2285               851.7938
 Red. masses --      1.2394                 1.7037                 1.8819
 Frc consts  --      0.4224                 0.6803                 0.8045
 IR Inten    --      0.4560                25.6696                25.7910

                     22                     23                     24
                      A                      A                      A
 Frequencies --    862.4275               906.0614               961.2602
 Red. masses --      1.9254                 1.4154                 1.8687
 Frc consts  --      0.8438                 0.6846                 1.0174
 IR Inten    --    149.2129               112.0085                36.3039

                     25                     26                     27
                      A                      A                      A
 Frequencies --    970.1428               989.2995              1014.5099
 Red. masses --      2.1224                 2.9590                 1.8607
 Frc consts  --      1.1769                 1.7063                 1.1284
 IR Inten    --    119.7088                41.1294                28.3683

                     28                     29                     30
                      A                      A                      A
 Frequencies --   1071.1696              1081.3433              1108.2169
 Red. masses --      1.7280                 2.7452                 1.5133
 Frc consts  --      1.1682                 1.8912                 1.0950
 IR Inten    --      4.5016                 2.4175                10.0537

                     31                     32                     33
                      A                      A                      A
 Frequencies --   1132.3009              1162.2364              1185.5588
 Red. masses --      2.4357                 1.6619                 1.8357
 Frc consts  --      1.8399                 1.3227                 1.5202
 IR Inten    --    213.6442               135.6287                34.5371

                     34                     35                     36
                      A                      A                      A
 Frequencies --   1194.7319              1267.2741              1285.2818
 Red. masses --      1.4633                 1.4220                 1.3078
 Frc consts  --      1.2306                 1.3455                 1.2728
 IR Inten    --      3.4193                 4.3371                 0.1546

                     37                     38                     39
                      A                      A                      A
 Frequencies --   1309.2514              1325.4204              1335.6676
 Red. masses --      1.3125                 1.2122                 1.1239
 Frc consts  --      1.3256                 1.2547                 1.1813
 IR Inten    --      1.7028                 3.3443                 4.6007

                     40                     41                     42
                      A                      A                      A
 Frequencies --   1350.4337              1363.5256              1390.1366
 Red. masses --      1.2344                 1.7078                 1.5259
 Frc consts  --      1.3264                 1.8707                 1.7373
 IR Inten    --      5.7727                41.6462                 8.8527

                     43                     44                     45
                      A                      A                      A
 Frequencies --   1404.2756              1421.6275              1437.1421
 Red. masses --      1.4504                 1.4961                 1.4941
 Frc consts  --      1.6852                 1.7815                 1.8182
 IR Inten    --      3.9674                 6.9480                25.6501

                     46                     47                     48
                      A                      A                      A
 Frequencies --   1490.6752              1493.9591              1508.9849
 Red. masses --      1.0834                 1.0873                 1.0851
 Frc consts  --      1.4184                 1.4298                 1.4557
 IR Inten    --      1.2054                 3.3925                 2.4967

                     49                     50                     51
                      A                      A                      A
 Frequencies --   1530.6757              1655.1326              1664.2582
 Red. masses --      1.0943                 1.0873                 1.0894
 Frc consts  --      1.5107                 1.7549                 1.7777
 IR Inten    --      1.4270                35.4619                35.6357

                     52                     53                     54
                      A                      A                      A
 Frequencies --   1807.5610              2950.8787              3017.4208
 Red. masses --     10.3941                 1.0721                 1.0600
 Frc consts  --     20.0089                 5.5005                 5.6865
 IR Inten    --    435.0970               119.1172                36.0627

                     55                     56                     57
                      A                      A                      A
 Frequencies --   3027.9076              3031.3117              3041.3573
 Red. masses --      1.0683                 1.0677                 1.0879
 Frc consts  --      5.7705                 5.7802                 5.9288
 IR Inten    --      7.3881                79.7887                57.5715

                     58                     59                     60
                      A                      A                      A
 Frequencies --   3051.3774              3056.6925              3093.0969
 Red. masses --      1.0952                 1.0862                 1.0988
 Frc consts  --      6.0082                 5.9795                 6.1935
 IR Inten    --     18.7079                76.1293                45.9290

                     61                     62                     63
                      A                      A                      A
 Frequencies --   3093.9120              3474.1038              3484.0448
 Red. masses --      1.0981                 1.0509                 1.0504
 Frc consts  --      6.1931                 7.4733                 7.5126
 IR Inten    --     78.5314                 2.3169                 0.8236

                     64                     65                     66
                      A                      A                      A
 Frequencies --   3551.7087              3560.4881              3734.5190
 Red. masses --      1.0912                 1.0914                 1.0646
 Frc consts  --      8.1103                 8.1517                 8.7480
 IR Inten    --      0.3260                 1.5610                81.3782

 - Thermochemistry -
 -------------------
 Temperature   298.150 Kelvin.  Pressure   1.00000 Atm.
 Atom     1 has atomic number  7 and mass  14.00307

 Molecular mass:   146.10553 amu.
 Principal axes and moments of inertia in atomic units:
                           1         2         3
     Eigenvalues --   527.602553859.265604183.68911
           X            1.00000  -0.00150  -0.00173
           Y            0.00154   0.99981   0.01955
           Z            0.00170  -0.01955   0.99981
 This molecule is an asymmetric top.
 Rotational symmetry number  1.
 Warning -- assumption of classical behavior for rotation
           may cause significant error
 Rotational temperatures (Kelvin)      0.16417     0.02244     0.02070
 Rotational constants (GHZ):           3.42065     0.46764     0.43138
 Zero-point vibrational energy     554948.2 (Joules/Mol)
                                  132.63581 (Kcal/Mol)
 Warning -- explicit consideration of  16 degrees of freedom as
           vibrations may cause significant error
 Vibrational temperatures:     46.11    60.48    99.05   112.87   203.52
          (Kelvin)            240.87   282.10   328.94   360.18   383.95
                              440.84   519.44   627.08   647.63   738.75
                              840.16   933.92  1040.45  1094.25  1184.44
                             1225.54  1240.84  1303.62  1383.04  1395.82
                             1423.38  1459.65  1541.17  1555.81  1594.48
                             1629.13  1672.20  1705.75  1718.95  1823.32
                             1849.23  1883.72  1906.98  1921.73  1942.97
                             1961.81  2000.10  2020.44  2045.40  2067.73
                             2144.75  2149.47  2171.09  2202.30  2381.37
                             2394.50  2600.68  4245.66  4341.40  4356.48
                             4361.38  4375.83  4390.25  4397.90  4450.28
                             4451.45  4998.46  5012.76  5110.12  5122.75
                             5373.14

 Zero-point correction=                           0.211369 (Hartree/Particle)
 Thermal correction to Energy=                    0.223509
 Thermal correction to Enthalpy=                  0.224453
 Thermal correction to Gibbs Free Energy=         0.171770
 Sum of electronic and zero-point Energies=           -496.848943
 Sum of electronic and thermal Energies=              -496.836803
 Sum of electronic and thermal Enthalpies=            -496.835859
 Sum of electronic and thermal Free Energies=         -496.888542

                     E (Thermal)             CV                S
                      KCal/Mol        Cal/Mol-Kelvin    Cal/Mol-Kelvin
 Total                  140.254             42.857            110.881
 Electronic               0.000              0.000              0.000
 Translational            0.889              2.981             40.848
 Rotational               0.889              2.981             30.522
 Vibrational            138.476             36.895             39.510
 Vibration     1          0.594              1.983              5.698
 Vibration     2          0.595              1.980              5.161
 Vibration     3          0.598              1.969              4.186
 Vibration     4          0.600              1.964              3.929
 Vibration     5          0.615              1.912              2.784
 Vibration     6          0.624              1.883              2.464
 Vibration     7          0.636              1.845              2.170
 Vibration     8          0.651              1.797              1.890
 Vibration     9          0.663              1.762              1.728
 Vibration    10          0.672              1.734              1.616
 Vibration    11          0.697              1.662              1.382
 Vibration    12          0.735              1.553              1.118
 Vibration    13          0.796              1.392              0.840
 Vibration    14          0.809              1.361              0.795
 Vibration    15          0.869              1.220              0.625
 Vibration    16          0.941              1.066              0.478

 Optimization completed.
    -- Stationary point found.
 Normal termination of Gaussian 16 at Thu Jul 18 05:34:43 2024.
 Gaussian 16:  ES64L-G16RevA.03 25-Dec-2016

 ----------------------------------------------------------------------
 # TD(NStates=10, Root=1) B3LYP/6-31G** SCRF=(Solvent=water) volume pop
 =NPA density=current Geom=AllCheck Guess=Read
 ----------------------------------------------------------------------

 Structure from the checkpoint file:  "KDXKERNSBIXSRK-YFKPBYRVSA-N_conf_2_2.chk"
 ----------------------------------
 KDXKERNSBIXSRK-YFKPBYRVSA-N_conf_2
 ----------------------------------
 Charge =  0 Multiplicity = 1

                         Standard orientation:
 ---------------------------------------------------------------------
 Center     Atomic      Atomic             Coordinates (Angstroms)
 Number     Number       Type             X           Y           Z
 ---------------------------------------------------------------------
      1          7           0        0.711706    1.485223    0.481385
      2          6           0        1.262241    0.134151    0.456381
      3          6           0        0.420172   -0.829090   -0.413261
      4          6           0       -1.011902   -1.092872    0.089429
      5          6           0       -2.054097   -0.034824   -0.296108
      6          6           0       -3.460181   -0.385130    0.193538
      7          7           0       -4.433438    0.632944   -0.236365
      8          6           0        2.716182    0.104610   -0.027919
      9          8           0        3.328198   -1.063186    0.261312
     10          8           0        3.272873    1.011463   -0.614907
     11          1           0        1.290031    2.069340    1.082681
     12          1           0        0.804778    1.889727   -0.449404
     13          1           0        1.265688   -0.255840    1.481898
     14          1           0        0.390886   -0.443101   -1.441707
     15          1           0        0.960634   -1.779946   -0.457219
     16          1           0       -0.992764   -1.214812    1.181317
     17          1           0       -1.334990   -2.061497   -0.314944
     18          1           0       -1.751712    0.935816    0.111899
     19          1           0       -2.080164    0.075498   -1.388554
     20          1           0       -3.433886   -0.530467    1.288005
     21          1           0       -3.769285   -1.346556   -0.237361
     22          1           0       -4.215329    1.509891    0.235426
     23          1           0       -5.357424    0.373371    0.104843
     24          1           0        4.232605   -1.015878   -0.095613
 ---------------------------------------------------------------------

 SCF Done:  E(RB3LYP) =  -497.060311734     A.U. after    1 cycles

 Excitation energies and oscillator strengths:

 Excited State   1:      Singlet-A      5.6434 eV  219.70 nm  f=0.0054  <S**2>=0.000
      38 -> 41        -0.35515
      39 -> 41         0.59900
      40 -> 41        -0.10484
 This state for optimization and/or second-order correction.
 Total Energy, E(TD-HF/TD-DFT) =  -496.852919498
 Copying the excited state density for this state as the 1-particle RhoCI density.

 Excited State   2:      Singlet-A      6.0713 eV  204.21 nm  f=0.0021  <S**2>=0.000
      38 -> 41         0.60485
      39 -> 41         0.35618

 Excited State   3:      Singlet-A      6.1028 eV  203.16 nm  f=0.0006  <S**2>=0.000
      39 -> 41         0.11110
      40 -> 41         0.69788

 Excited State   4:      Singlet-A      7.4771 eV  165.82 nm  f=0.0140  <S**2>=0.000
      40 -> 43         0.69508

 Excited State   5:      Singlet-A      7.8035 eV  158.88 nm  f=0.0205  <S**2>=0.000
      39 -> 42         0.57441
      39 -> 44        -0.36578
      39 -> 45         0.12279
      40 -> 42        -0.10321

 Excited State   6:      Singlet-A      7.9877 eV  155.22 nm  f=0.0429  <S**2>=0.000
      33 -> 41        -0.10666
      36 -> 41         0.10973
      37 -> 41         0.66641

 Excited State   7:      Singlet-A      8.0923 eV  153.21 nm  f=0.0022  <S**2>=0.000
      40 -> 42         0.64698
      40 -> 44        -0.20183
      40 -> 45        -0.14368

 Excited State   8:      Singlet-A      8.1610 eV  151.92 nm  f=0.0057  <S**2>=0.000
      33 -> 41        -0.17900
      34 -> 41        -0.27303
      35 -> 41         0.11501
      36 -> 41         0.58296
      39 -> 44        -0.11476

 Excited State   9:      Singlet-A      8.2683 eV  149.95 nm  f=0.1730  <S**2>=0.000
      34 -> 41        -0.25500
      35 -> 41         0.37028
      38 -> 42        -0.15317
      38 -> 44        -0.13471
      39 -> 42         0.26430
      39 -> 44         0.39587
      40 -> 44        -0.11029

 Excited State  10:      Singlet-A      8.3037 eV  149.31 nm  f=0.0349  <S**2>=0.000
      32 -> 41        -0.16334
      34 -> 41         0.42856
      35 -> 41         0.50198
      39 -> 44        -0.11457

 The electronic state is 1-A.
 Alpha  occ. eigenvalues --  -19.19892 -19.14508 -14.31899 -14.30745 -10.31981
 Alpha  occ. eigenvalues --  -10.22857 -10.19906 -10.18809 -10.17945 -10.16869
 Alpha  occ. eigenvalues --   -1.10745  -1.01799  -0.89287  -0.87157  -0.78621
 Alpha  occ. eigenvalues --   -0.73681  -0.68092  -0.61678  -0.58524  -0.57233
 Alpha  occ. eigenvalues --   -0.50774  -0.49306  -0.48542  -0.47860  -0.45171
 Alpha  occ. eigenvalues --   -0.44609  -0.43937  -0.42511  -0.40193  -0.39206
 Alpha  occ. eigenvalues --   -0.38759  -0.36106  -0.34444  -0.32933  -0.32690
 Alpha  occ. eigenvalues --   -0.32345  -0.31621  -0.28193  -0.24767  -0.23489
 Alpha virt. eigenvalues --    0.00482   0.08113   0.09097   0.09403   0.11448
 Alpha virt. eigenvalues --    0.11884   0.13835   0.14742   0.16237   0.16501
 Alpha virt. eigenvalues --    0.17919   0.19160   0.19443   0.20806   0.21284

 Mulliken charges:
               1
     1  N   -0.463423
     2  C   -0.015400
     3  C   -0.180069
     4  C   -0.187777
     5  C   -0.172947
     6  C   -0.051254
     7  N   -0.644445
     8  C    0.367647
     9  O   -0.532688
    10  O   -0.500877
    11  H    0.308592
    12  H    0.305113
    13  H    0.126802
    14  H    0.099477
    15  H    0.118592
    16  H    0.097191
    17  H    0.101631
    18  H    0.106300
    19  H    0.096018
    20  H    0.083435
    21  H    0.101873
    22  H    0.249820
    23  H    0.252084
    24  H    0.334306
 Sum of Mulliken charges =  -0.00000

 Dipole moment (field-independent basis, Debye):
    X=             -2.5128    Y=              0.6725    Z=              2.4685  Tot=              3.5861
 Quadrupole moment (field-independent basis, Debye-Ang):
   XX=            -65.1282   YY=            -57.4250   ZZ=            -62.6396
   XY=             -2.6766   XZ=             -4.5915   YZ=              4.6453

 Summary of Natural Population Analysis:

                                       Natural Population
                Natural  -----------------------------------------------
    Atom  No    Charge         Core      Valence    Rydberg      Total
 -----------------------------------------------------------------------
      N    1   -0.64661      1.99949     5.63607    0.01104     7.64661
      C    2   -0.14485      1.99915     4.12509    0.02061     6.14485
      C    3   -0.47444      1.99929     4.46100    0.01414     6.47444
      C    4   -0.46418      1.99932     4.45282    0.01204     6.46418
      C    5   -0.47422      1.99932     4.46326    0.01164     6.47422
      C    6   -0.25739      1.99935     4.24488    0.01316     6.25739
      N    7   -0.92552      1.99968     5.91108    0.01477     7.92552
      C    8    0.45530      1.99940     3.49906    0.04624     5.54470
      O    9   -0.74165      1.99979     6.73095    0.01092     8.74165
      O   10   -0.56976      1.99981     6.55058    0.01937     8.56976
      H   11    0.42044      0.00000     0.57675    0.00281     0.57956
      H   12    0.41359      0.00000     0.58297    0.00344     0.58641
      H   13    0.25219      0.00000     0.74190    0.00590     0.74781
      H   14    0.23780      0.00000     0.75982    0.00238     0.76220
      H   15    0.25890      0.00000     0.73894    0.00216     0.74110
      H   16    0.23279      0.00000     0.76456    0.00265     0.76721
      H   17    0.24350      0.00000     0.75431    0.00219     0.75650
      H   18    0.23678      0.00000     0.76093    0.00229     0.76322
      H   19    0.23318      0.00000     0.76400    0.00282     0.76682
      H   20    0.20325      0.00000     0.79405    0.00270     0.79675
      H   21    0.22440      0.00000     0.77347    0.00213     0.77560
      H   22    0.38320      0.00000     0.61389    0.00291     0.61680
      H   23    0.39041      0.00000     0.60695    0.00264     0.60959
      H   24    0.51290      0.00000     0.48223    0.00486     0.48710
 =======================================================================
   * Total *    0.00000     19.99461    59.78958    0.21581    80.00000

 Normal termination of Gaussian 16 at Thu Jul 18 05:43:09 2024.
