 Gaussian 16, Revision A.03,

 -------------------------------------------------------
 # opt=CalcFc B3LYP/6-31G** SCRF=(Solvent=water) scf=xqc
 -------------------------------------------------------

 ----------------------------------
 KDXKERNSBIXSRK-YFKPBYRVSA-N_conf_4
 ----------------------------------
 Symbolic Z-matrix:
 Charge =  0 Multiplicity = 1

 SCF Done:  E(RB3LYP) =  -497.055030395     A.U. after   12 cycles
 SCF Done:  E(RB3LYP) =  -497.059317282     A.U. after   13 cycles
 SCF Done:  E(RB3LYP) =  -497.058981466     A.U. after   13 cycles
 SCF Done:  E(RB3LYP) =  -497.056952705     A.U. after   11 cycles
 SCF Done:  E(RB3LYP) =  -497.059515008     A.U. after   10 cycles
 SCF Done:  E(RB3LYP) =  -497.059511720     A.U. after    9 cycles
 SCF Done:  E(RB3LYP) =  -497.059518135     A.U. after    8 cycles
 SCF Done:  E(RB3LYP) =  -497.059518423     A.U. after    7 cycles
 SCF Done:  E(RB3LYP) =  -497.059519503     A.U. after    8 cycles
 SCF Done:  E(RB3LYP) =  -497.059521182     A.U. after    8 cycles
 SCF Done:  E(RB3LYP) =  -497.059521915     A.U. after    8 cycles
 SCF Done:  E(RB3LYP) =  -497.059521759     A.U. after    7 cycles
 Optimization completed.
    -- Stationary point found.
 Normal termination of Gaussian 16 at Thu Jul 18 05:38:47 2024.

 ----------------------------------------------------------------------
 # freq B3LYP/6-31G** SCRF=(Solvent=water) volume NMR pop=NPA density=c
 urrent Geom=AllCheck Guess=Read
 ----------------------------------------------------------------------

 Structure from the checkpoint file:  "KDXKERNSBIXSRK-YFKPBYRVSA-N_conf_4_1.chk"
 ----------------------------------
 KDXKERNSBIXSRK-YFKPBYRVSA-N_conf_4
 ----------------------------------
 Charge =  0 Multiplicity = 1

 SCF Done:  E(RB3LYP) =  -497.059521759     A.U. after    1 cycles

      1  N    Isotropic =   226.0328   Anisotropy =    38.0358

      2  C    Isotropic =   135.7173   Anisotropy =    27.9941

      3  C    Isotropic =   154.6484   Anisotropy =    25.6267

      4  C    Isotropic =   167.4806   Anisotropy =    15.8308

      5  C    Isotropic =   160.0242   Anisotropy =    18.9531

      6  C    Isotropic =   148.4540   Anisotropy =    25.2144

      7  N    Isotropic =   235.8073   Anisotropy =    27.1821

      8  C    Isotropic =    21.5757   Anisotropy =   104.2866

      9  O    Isotropic =   147.8501   Anisotropy =   168.8508

     10  O    Isotropic =   -50.6952   Anisotropy =   492.0605

     11  H    Isotropic =    30.4825   Anisotropy =    15.0951

     12  H    Isotropic =    30.8357   Anisotropy =    11.4670

     13  H    Isotropic =    28.3410   Anisotropy =     4.6672

     14  H    Isotropic =    30.0992   Anisotropy =     6.2272

     15  H    Isotropic =    30.0139   Anisotropy =     6.0052

     16  H    Isotropic =    30.1137   Anisotropy =     7.6262

     17  H    Isotropic =    30.7611   Anisotropy =     5.3407

     18  H    Isotropic =    29.9521   Anisotropy =     6.4376

     19  H    Isotropic =    30.4690   Anisotropy =     6.6100

     20  H    Isotropic =    28.9408   Anisotropy =     7.2328

     21  H    Isotropic =    29.1639   Anisotropy =     7.7188

     22  H    Isotropic =    31.2726   Anisotropy =    11.3784

     23  H    Isotropic =    31.0629   Anisotropy =    15.7884

     24  H    Isotropic =    25.4823   Anisotropy =    11.9602

  Exact polarizability: 112.681  -3.691 101.268   4.481  -2.720  97.243
 Approx polarizability: 115.547  -5.531 115.621   7.621  -6.396 111.824

                      1                      2                      3
                      A                      A                      A
 Frequencies --     31.0290                46.7649                49.1345
 Red. masses --      6.5935                 4.6895                 3.3146
 Frc consts  --      0.0037                 0.0060                 0.0047
 IR Inten    --      1.9837                 2.7460                 1.3278

                      4                      5                      6
                      A                      A                      A
 Frequencies --    105.8183               133.4086               177.5451
 Red. masses --      3.3248                 3.0722                 2.6689
 Frc consts  --      0.0219                 0.0322                 0.0496
 IR Inten    --      1.6058                 8.1007                 4.1917

                      7                      8                      9
                      A                      A                      A
 Frequencies --    223.2913               263.8124               272.3721
 Red. masses --      1.3429                 1.6894                 2.5338
 Frc consts  --      0.0394                 0.0693                 0.1108
 IR Inten    --     50.5446                26.3112                13.8942

                     10                     11                     12
                      A                      A                      A
 Frequencies --    284.7918               306.4870               325.4076
 Red. masses --      1.6780                 1.9125                 2.1887
 Frc consts  --      0.0802                 0.1058                 0.1365
 IR Inten    --     26.2532                17.6736                32.0554

                     13                     14                     15
                      A                      A                      A
 Frequencies --    438.1029               493.6842               560.5622
 Red. masses --      3.0125                 3.8196                 2.7632
 Frc consts  --      0.3407                 0.5485                 0.5116
 IR Inten    --     11.6571                20.7876                18.7934

                     16                     17                     18
                      A                      A                      A
 Frequencies --    599.0311               608.8661               732.5668
 Red. masses --      1.3696                 2.2880                 1.4232
 Frc consts  --      0.2896                 0.4997                 0.4500
 IR Inten    --    125.8546                67.3399                25.2904

                     19                     20                     21
                      A                      A                      A
 Frequencies --    760.8415               792.3797               827.3347
 Red. masses --      3.5294                 2.2237                 2.0268
 Frc consts  --      1.2038                 0.8226                 0.8174
 IR Inten    --     27.1938                25.8261                21.0096

                     22                     23                     24
                      A                      A                      A
 Frequencies --    878.9684               901.7660               928.0285
 Red. masses --      1.5951                 1.5300                 1.8957
 Frc consts  --      0.7261                 0.7330                 0.9619
 IR Inten    --     84.3588               200.6676               141.0887

                     25                     26                     27
                      A                      A                      A
 Frequencies --    942.0363               974.9099              1030.8548
 Red. masses --      1.8640                 1.8959                 1.9095
 Frc consts  --      0.9746                 1.0617                 1.1955
 IR Inten    --     11.0664                36.4423                 1.2041

                     28                     29                     30
                      A                      A                      A
 Frequencies --   1068.7202              1093.1872              1107.7568
 Red. masses --      2.3020                 1.9167                 2.1466
 Frc consts  --      1.5491                 1.3495                 1.5520
 IR Inten    --      5.0628               129.9105                29.5860

                     31                     32                     33
                      A                      A                      A
 Frequencies --   1144.3881              1152.2215              1173.8600
 Red. masses --      2.4653                 1.1435                 1.9291
 Frc consts  --      1.9022                 0.8945                 1.5661
 IR Inten    --      8.0014                 9.5801               151.5184

                     34                     35                     36
                      A                      A                      A
 Frequencies --   1214.8616              1219.2275              1286.7645
 Red. masses --      1.3423                 1.5262                 1.3568
 Frc consts  --      1.1672                 1.3367                 1.3236
 IR Inten    --     34.6126                 4.9912                 6.7823

                     37                     38                     39
                      A                      A                      A
 Frequencies --   1323.7514              1333.3992              1353.5311
 Red. masses --      1.3177                 1.3481                 1.2247
 Frc consts  --      1.3605                 1.4122                 1.3220
 IR Inten    --      4.5724                13.0849                13.1835

                     40                     41                     42
                      A                      A                      A
 Frequencies --   1357.8746              1363.0623              1387.6591
 Red. masses --      1.4584                 1.3554                 1.6468
 Frc consts  --      1.5844                 1.4837                 1.8683
 IR Inten    --     25.2328                26.1328                25.0406

                     43                     44                     45
                      A                      A                      A
 Frequencies --   1410.2211              1417.5354              1431.3648
 Red. masses --      1.3149                 1.5115                 1.4063
 Frc consts  --      1.5407                 1.7895                 1.6975
 IR Inten    --      9.4396                 1.6648                24.1853

                     46                     47                     48
                      A                      A                      A
 Frequencies --   1480.7060              1492.1574              1504.4238
 Red. masses --      1.0872                 1.0913                 1.0944
 Frc consts  --      1.4044                 1.4317                 1.4594
 IR Inten    --      0.6837                 2.7333                 5.8536

                     49                     50                     51
                      A                      A                      A
 Frequencies --   1514.5675              1661.3179              1662.7074
 Red. masses --      1.0876                 1.0864                 1.0915
 Frc consts  --      1.4699                 1.7666                 1.7779
 IR Inten    --      2.2975                42.1413                48.4820

                     52                     53                     54
                      A                      A                      A
 Frequencies --   1800.3103              2954.7972              3026.6302
 Red. masses --      9.9846                 1.0729                 1.0613
 Frc consts  --     19.0666                 5.5188                 5.7283
 IR Inten    --    404.6505               119.6728                 2.5585

                     55                     56                     57
                      A                      A                      A
 Frequencies --   3033.8362              3037.7930              3063.6217
 Red. masses --      1.0616                 1.0630                 1.0986
 Frc consts  --      5.7569                 5.7797                 6.0749
 IR Inten    --     77.3655                41.1969                34.5200

                     58                     59                     60
                      A                      A                      A
 Frequencies --   3065.8384              3079.6635              3088.3581
 Red. masses --      1.0893                 1.0989                 1.1025
 Frc consts  --      6.0324                 6.1408                 6.1954
 IR Inten    --     53.7369                14.7875               119.8924

                     61                     62                     63
                      A                      A                      A
 Frequencies --   3100.0419              3487.8381              3489.8485
 Red. masses --      1.0892                 1.0510                 1.0502
 Frc consts  --      6.1675                 7.5329                 7.5359
 IR Inten    --     50.1484                 0.9497                 0.6024

                     64                     65                     66
                      A                      A                      A
 Frequencies --   3561.5083              3570.1735              3740.9083
 Red. masses --      1.0912                 1.0923                 1.0646
 Frc consts  --      8.1547                 8.2027                 8.7781
 IR Inten    --      0.0090                 2.1979                95.7075

 - Thermochemistry -
 -------------------
 Temperature   298.150 Kelvin.  Pressure   1.00000 Atm.
 Atom     1 has atomic number  7 and mass  14.00307

 Molecular mass:   146.10553 amu.
 Principal axes and moments of inertia in atomic units:
                           1         2         3
     Eigenvalues --   764.760562999.076563326.99133
           X            0.99987  -0.01597  -0.00124
           Y            0.01597   0.99986   0.00575
           Z            0.00114  -0.00577   0.99998
 This molecule is an asymmetric top.
 Rotational symmetry number  1.
 Warning -- assumption of classical behavior for rotation
           may cause significant error
 Rotational temperatures (Kelvin)      0.11326     0.02888     0.02603
 Rotational constants (GHZ):           2.35988     0.60177     0.54245
 Zero-point vibrational energy     555941.9 (Joules/Mol)
                                  132.87330 (Kcal/Mol)
 Warning -- explicit consideration of  17 degrees of freedom as
           vibrations may cause significant error
 Vibrational temperatures:     44.64    67.28    70.69   152.25   191.95
          (Kelvin)            255.45   321.27   379.57   391.88   409.75
                              440.97   468.19   630.33   710.30   806.52
                              861.87   876.02  1054.00  1094.68  1140.06
                             1190.35  1264.64  1297.44  1335.23  1355.38
                             1402.68  1483.17  1537.65  1572.85  1593.81
                             1646.52  1657.79  1688.92  1747.91  1754.20
                             1851.37  1904.58  1918.46  1947.43  1953.68
                             1961.14  1996.53  2028.99  2039.52  2059.41
                             2130.41  2146.88  2164.53  2179.12  2390.27
                             2392.27  2590.25  4251.29  4354.65  4365.01
                             4370.71  4407.87  4411.06  4430.95  4443.46
                             4460.27  5018.22  5021.11  5124.22  5136.68
                             5382.33

 Zero-point correction=                           0.211747 (Hartree/Particle)
 Thermal correction to Energy=                    0.223721
 Thermal correction to Enthalpy=                  0.224665
 Thermal correction to Gibbs Free Energy=         0.172411
 Sum of electronic and zero-point Energies=           -496.847775
 Sum of electronic and thermal Energies=              -496.835801
 Sum of electronic and thermal Enthalpies=            -496.834856
 Sum of electronic and thermal Free Energies=         -496.887110

                     E (Thermal)             CV                S
                      KCal/Mol        Cal/Mol-Kelvin    Cal/Mol-Kelvin
 Total                  140.387             42.719            109.978
 Electronic               0.000              0.000              0.000
 Translational            0.889              2.981             40.848
 Rotational               0.889              2.981             30.413
 Vibrational            138.610             36.757             38.717
 Vibration     1          0.594              1.983              5.763
 Vibration     2          0.595              1.979              4.950
 Vibration     3          0.595              1.978              4.852
 Vibration     4          0.605              1.945              3.344
 Vibration     5          0.613              1.920              2.896
 Vibration     6          0.628              1.870              2.354
 Vibration     7          0.649              1.806              1.932
 Vibration     8          0.670              1.739              1.636
 Vibration     9          0.675              1.724              1.581
 Vibration    10          0.683              1.702              1.505
 Vibration    11          0.697              1.661              1.381
 Vibration    12          0.710              1.625              1.283
 Vibration    13          0.798              1.387              0.833
 Vibration    14          0.849              1.264              0.674
 Vibration    15          0.916              1.117              0.523
 Vibration    16          0.957              1.034              0.451
 Vibration    17          0.968              1.013              0.435

 Optimization completed.
    -- Stationary point found.
 Normal termination of Gaussian 16 at Thu Jul 18 05:45:52 2024.
 Gaussian 16:  ES64L-G16RevA.03 25-Dec-2016

 ----------------------------------------------------------------------
 # TD(NStates=10, Root=1) B3LYP/6-31G** SCRF=(Solvent=water) volume pop
 =NPA density=current Geom=AllCheck Guess=Read
 ----------------------------------------------------------------------

 Structure from the checkpoint file:  "KDXKERNSBIXSRK-YFKPBYRVSA-N_conf_4_2.chk"
 ----------------------------------
 KDXKERNSBIXSRK-YFKPBYRVSA-N_conf_4
 ----------------------------------
 Charge =  0 Multiplicity = 1

                         Standard orientation:
 ---------------------------------------------------------------------
 Center     Atomic      Atomic             Coordinates (Angstroms)
 Number     Number       Type             X           Y           Z
 ---------------------------------------------------------------------
      1          7           0        2.561358   -1.532435   -0.548551
      2          6           0        1.428593   -0.606399   -0.474964
      3          6           0        0.367083   -1.180414    0.491196
      4          6           0       -0.924566   -0.363290    0.652553
      5          6           0       -1.735485   -0.187866   -0.639175
      6          6           0       -3.059374    0.559333   -0.443203
      7          7           0       -3.997873   -0.195324    0.405134
      8          6           0        1.790006    0.820769   -0.063630
      9          8           0        2.692779    0.853702    0.940412
     10          8           0        1.313944    1.829278   -0.549544
     11          1           0        3.251818   -1.180774   -1.208848
     12          1           0        3.030864   -1.559556    0.354842
     13          1           0        0.997604   -0.518949   -1.476229
     14          1           0        0.838624   -1.307123    1.474168
     15          1           0        0.129854   -2.186024    0.125590
     16          1           0       -1.538453   -0.877653    1.401771
     17          1           0       -0.695270    0.625378    1.072182
     18          1           0       -1.140015    0.369599   -1.371788
     19          1           0       -1.947446   -1.172966   -1.075684
     20          1           0       -2.844809    1.573165   -0.061868
     21          1           0       -3.534700    0.691184   -1.422027
     22          1           0       -3.691783   -0.142009    1.374752
     23          1           0       -4.900968    0.274816    0.392460
     24          1           0        2.848964    1.788588    1.160985
 ---------------------------------------------------------------------

 SCF Done:  E(RB3LYP) =  -497.059521759     A.U. after    1 cycles

 Excitation energies and oscillator strengths:

 Excited State   1:      Singlet-A      5.2872 eV  234.50 nm  f=0.0113  <S**2>=0.000
      38 -> 41        -0.21030
      39 -> 41         0.67022
 This state for optimization and/or second-order correction.
 Total Energy, E(TD-HF/TD-DFT) =  -496.865219023
 Copying the excited state density for this state as the 1-particle RhoCI density.

 Excited State   2:      Singlet-A      5.9968 eV  206.75 nm  f=0.0004  <S**2>=0.000
      40 -> 41         0.70416

 Excited State   3:      Singlet-A      6.5791 eV  188.45 nm  f=0.0163  <S**2>=0.000
      38 -> 41         0.66575
      39 -> 41         0.21191

 Excited State   4:      Singlet-A      7.3840 eV  167.91 nm  f=0.0188  <S**2>=0.000
      40 -> 42        -0.11116
      40 -> 43         0.68661

 Excited State   5:      Singlet-A      7.4967 eV  165.39 nm  f=0.0078  <S**2>=0.000
      37 -> 41         0.10975
      39 -> 42         0.67134

 Excited State   6:      Singlet-A      7.7612 eV  159.75 nm  f=0.0254  <S**2>=0.000
      35 -> 41         0.17695
      37 -> 41         0.66042

 Excited State   7:      Singlet-A      7.9897 eV  155.18 nm  f=0.0071  <S**2>=0.000
      40 -> 42         0.69341
      40 -> 43         0.10301

 Excited State   8:      Singlet-A      8.0048 eV  154.89 nm  f=0.0252  <S**2>=0.000
      35 -> 41         0.58151
      36 -> 41         0.36670

 Excited State   9:      Singlet-A      8.1744 eV  151.67 nm  f=0.0110  <S**2>=0.000
      34 -> 41         0.52615
      35 -> 41         0.15407
      36 -> 41        -0.38769

 Excited State  10:      Singlet-A      8.2297 eV  150.65 nm  f=0.0315  <S**2>=0.000
      34 -> 41        -0.19939
      38 -> 42         0.11609
      39 -> 42        -0.11146
      39 -> 43         0.59059
      39 -> 44        -0.10718
      39 -> 45        -0.21762
      39 -> 46         0.13004

 The electronic state is 1-A.
 Alpha  occ. eigenvalues --  -19.19983 -19.14410 -14.32121 -14.30866 -10.32013
 Alpha  occ. eigenvalues --  -10.22759 -10.20182 -10.18814 -10.18120 -10.17498
 Alpha  occ. eigenvalues --   -1.10763  -1.01676  -0.89390  -0.87358  -0.79001
 Alpha  occ. eigenvalues --   -0.73072  -0.68247  -0.63077  -0.59784  -0.56329
 Alpha  occ. eigenvalues --   -0.50164  -0.49515  -0.48257  -0.47762  -0.46584
 Alpha  occ. eigenvalues --   -0.44985  -0.43795  -0.41773  -0.40369  -0.39654
 Alpha  occ. eigenvalues --   -0.37913  -0.36465  -0.35969  -0.33171  -0.32411
 Alpha  occ. eigenvalues --   -0.32365  -0.31319  -0.29644  -0.24186  -0.23660
 Alpha virt. eigenvalues --    0.00272   0.07387   0.08350   0.11182   0.11264
 Alpha virt. eigenvalues --    0.12358   0.13463   0.14194   0.15627   0.17079
 Alpha virt. eigenvalues --    0.17972   0.18579   0.19014   0.19749   0.21227

 Mulliken charges:
               1
     1  N   -0.476431
     2  C   -0.030559
     3  C   -0.171444
     4  C   -0.182005
     5  C   -0.165399
     6  C   -0.062932
     7  N   -0.641362
     8  C    0.398251
     9  O   -0.527489
    10  O   -0.472889
    11  H    0.295164
    12  H    0.301870
    13  H    0.131082
    14  H    0.100315
    15  H    0.097969
    16  H    0.096410
    17  H    0.101604
    18  H    0.096681
    19  H    0.090492
    20  H    0.082537
    21  H    0.100134
    22  H    0.252265
    23  H    0.252682
    24  H    0.333051
 Sum of Mulliken charges =  -0.00000

 Dipole moment (field-independent basis, Debye):
    X=              2.1796    Y=             -1.0380    Z=              1.3234  Tot=              2.7531
 Quadrupole moment (field-independent basis, Debye-Ang):
   XX=            -48.5623   YY=            -65.1355   ZZ=            -58.1622
   XY=             -9.3586   XZ=             -2.1829   YZ=              4.0745

 Summary of Natural Population Analysis:

                                       Natural Population
                Natural  -----------------------------------------------
    Atom  No    Charge         Core      Valence    Rydberg      Total
 -----------------------------------------------------------------------
      N    1   -0.66221      1.99954     5.65089    0.01178     7.66221
      C    2   -0.15718      1.99914     4.13734    0.02069     6.15718
      C    3   -0.47071      1.99929     4.45760    0.01382     6.47071
      C    4   -0.46957      1.99933     4.45885    0.01140     6.46957
      C    5   -0.47725      1.99933     4.46629    0.01164     6.47725
      C    6   -0.26094      1.99935     4.24777    0.01382     6.26094
      N    7   -0.93358      1.99968     5.91894    0.01496     7.93358
      C    8    0.46458      1.99941     3.48887    0.04714     5.53542
      O    9   -0.74011      1.99979     6.72928    0.01104     8.74011
      O   10   -0.52170      1.99980     6.50229    0.01960     8.52170
      H   11    0.41404      0.00000     0.58142    0.00454     0.58596
      H   12    0.41157      0.00000     0.58541    0.00302     0.58843
      H   13    0.26022      0.00000     0.73673    0.00305     0.73978
      H   14    0.24206      0.00000     0.75572    0.00222     0.75794
      H   15    0.23772      0.00000     0.75856    0.00372     0.76228
      H   16    0.23868      0.00000     0.75909    0.00223     0.76132
      H   17    0.23743      0.00000     0.76016    0.00241     0.76257
      H   18    0.23611      0.00000     0.76143    0.00245     0.76389
      H   19    0.23083      0.00000     0.76613    0.00304     0.76917
      H   20    0.20276      0.00000     0.79439    0.00285     0.79724
      H   21    0.23127      0.00000     0.76689    0.00184     0.76873
      H   22    0.38410      0.00000     0.61321    0.00269     0.61590
      H   23    0.39104      0.00000     0.60640    0.00256     0.60896
      H   24    0.51084      0.00000     0.48419    0.00497     0.48916
 =======================================================================
   * Total *   -0.00000     19.99465    59.78784    0.21751    80.00000

 Normal termination of Gaussian 16 at Thu Jul 18 05:54:15 2024.
