 Gaussian 16, Revision A.03,

 -------------------------------------------------------
 # opt=CalcFc B3LYP/6-31G** SCRF=(Solvent=water) scf=xqc
 -------------------------------------------------------

 ----------------------------------
 KDXKERNSBIXSRK-YFKPBYRVSA-N_conf_3
 ----------------------------------
 Symbolic Z-matrix:
 Charge =  0 Multiplicity = 1

 SCF Done:  E(RB3LYP) =  -497.053002515     A.U. after   12 cycles
 SCF Done:  E(RB3LYP) =  -497.057030578     A.U. after   12 cycles
 SCF Done:  E(RB3LYP) =  -497.056909478     A.U. after   11 cycles
 SCF Done:  E(RB3LYP) =  -497.057299343     A.U. after   11 cycles
 SCF Done:  E(RB3LYP) =  -497.057332168     A.U. after   10 cycles
 SCF Done:  E(RB3LYP) =  -497.057344561     A.U. after    9 cycles
 SCF Done:  E(RB3LYP) =  -497.057352001     A.U. after    9 cycles
 SCF Done:  E(RB3LYP) =  -497.057352136     A.U. after    9 cycles
 SCF Done:  E(RB3LYP) =  -497.057352773     A.U. after    7 cycles
 SCF Done:  E(RB3LYP) =  -497.057352818     A.U. after    6 cycles
 Optimization completed.
    -- Stationary point found.
 Normal termination of Gaussian 16 at Thu Jul 18 05:35:05 2024.

 ----------------------------------------------------------------------
 # freq B3LYP/6-31G** SCRF=(Solvent=water) volume NMR pop=NPA density=c
 urrent Geom=AllCheck Guess=Read
 ----------------------------------------------------------------------

 Structure from the checkpoint file:  "KDXKERNSBIXSRK-YFKPBYRVSA-N_conf_3_1.chk"
 ----------------------------------
 KDXKERNSBIXSRK-YFKPBYRVSA-N_conf_3
 ----------------------------------
 Charge =  0 Multiplicity = 1

 SCF Done:  E(RB3LYP) =  -497.057352818     A.U. after    1 cycles

      1  N    Isotropic =   227.7081   Anisotropy =    26.2315

      2  C    Isotropic =   131.0757   Anisotropy =    18.6157

      3  C    Isotropic =   159.8767   Anisotropy =    23.7897

      4  C    Isotropic =   160.7808   Anisotropy =    14.4323

      5  C    Isotropic =   159.8354   Anisotropy =    22.5679

      6  C    Isotropic =   148.0654   Anisotropy =    35.3081

      7  N    Isotropic =   232.7718   Anisotropy =    33.2727

      8  C    Isotropic =    20.1876   Anisotropy =   100.0241

      9  O    Isotropic =   137.5119   Anisotropy =   154.2043

     10  O    Isotropic =   -31.1977   Anisotropy =   497.2894

     11  H    Isotropic =    30.8801   Anisotropy =    10.3488

     12  H    Isotropic =    30.4599   Anisotropy =    14.5298

     13  H    Isotropic =    28.3969   Anisotropy =     4.1969

     14  H    Isotropic =    30.2287   Anisotropy =     3.9196

     15  H    Isotropic =    29.8899   Anisotropy =     8.2209

     16  H    Isotropic =    30.0662   Anisotropy =     8.2491

     17  H    Isotropic =    30.0228   Anisotropy =     7.6802

     18  H    Isotropic =    30.5584   Anisotropy =     7.4900

     19  H    Isotropic =    29.0526   Anisotropy =     5.4566

     20  H    Isotropic =    29.0339   Anisotropy =     6.1756

     21  H    Isotropic =    28.8757   Anisotropy =     6.2009

     22  H    Isotropic =    31.6165   Anisotropy =    12.7850

     23  H    Isotropic =    31.0206   Anisotropy =    15.3955

     24  H    Isotropic =    25.4085   Anisotropy =    11.8001

  Exact polarizability: 115.161  -0.799 106.563   3.053   1.724  89.876
 Approx polarizability: 116.117  -3.921 123.854   3.616   0.813 102.068

                      1                      2                      3
                      A                      A                      A
 Frequencies --     25.1800                34.6911                53.2655
 Red. masses --      5.4647                 5.2899                 3.5835
 Frc consts  --      0.0020                 0.0038                 0.0060
 IR Inten    --      2.9029                 2.0750                 0.3591

                      4                      5                      6
                      A                      A                      A
 Frequencies --     80.9951               151.9752               212.8465
 Red. masses --      2.1063                 3.7040                 2.8147
 Frc consts  --      0.0081                 0.0504                 0.0751
 IR Inten    --      8.1393                 1.1257                 1.8878

                      7                      8                      9
                      A                      A                      A
 Frequencies --    222.7256               265.9104               269.1643
 Red. masses --      2.4145                 1.1530                 1.3495
 Frc consts  --      0.0706                 0.0480                 0.0576
 IR Inten    --     10.1145                66.3139                32.8561

                     10                     11                     12
                      A                      A                      A
 Frequencies --    297.8725               316.9450               368.3126
 Red. masses --      2.1822                 2.6060                 3.0015
 Frc consts  --      0.1141                 0.1542                 0.2399
 IR Inten    --     22.5332                18.0759                 1.5122

                     13                     14                     15
                      A                      A                      A
 Frequencies --    421.1832               495.3402               519.9480
 Red. masses --      2.6748                 2.4720                 4.9597
 Frc consts  --      0.2796                 0.3574                 0.7900
 IR Inten    --     12.7431                 6.5135                 9.0790

                     16                     17                     18
                      A                      A                      A
 Frequencies --    573.0341               644.9080               714.3368
 Red. masses --      2.0681                 1.6353                 2.5844
 Frc consts  --      0.4001                 0.4007                 0.7770
 IR Inten    --     84.9842               125.6005                88.7973

                     19                     20                     21
                      A                      A                      A
 Frequencies --    762.9991               817.6455               850.2916
 Red. masses --      1.3484                 1.9921                 2.6136
 Frc consts  --      0.4625                 0.7847                 1.1133
 IR Inten    --      5.6725                58.8079                11.6059

                     22                     23                     24
                      A                      A                      A
 Frequencies --    857.5024               903.2140               911.3379
 Red. masses --      1.7808                 1.8035                 1.4790
 Frc consts  --      0.7715                 0.8668                 0.7237
 IR Inten    --     17.8950                88.0780               201.4681

                     25                     26                     27
                      A                      A                      A
 Frequencies --    962.8731               976.8919              1025.6892
 Red. masses --      1.8687                 2.4604                 1.5630
 Frc consts  --      1.0208                 1.3834                 0.9688
 IR Inten    --    104.3815                34.1819                 1.1403

                     28                     29                     30
                      A                      A                      A
 Frequencies --   1063.1107              1102.6195              1111.5611
 Red. masses --      2.6093                 1.8417                 1.9691
 Frc consts  --      1.7375                 1.3192                 1.4335
 IR Inten    --     16.3492                 8.3445                15.8550

                     31                     32                     33
                      A                      A                      A
 Frequencies --   1130.2924              1160.8825              1183.0402
 Red. masses --      1.2618                 1.9614                 2.1153
 Frc consts  --      0.9498                 1.5573                 1.7443
 IR Inten    --     49.1769               157.5609               155.8335

                     34                     35                     36
                      A                      A                      A
 Frequencies --   1197.4400              1257.8286              1300.4942
 Red. masses --      1.4945                 1.3998                 1.3303
 Frc consts  --      1.2625                 1.3048                 1.3256
 IR Inten    --     10.1422                 7.1341                 9.8644

                     37                     38                     39
                      A                      A                      A
 Frequencies --   1309.3102              1336.1577              1339.5887
 Red. masses --      1.3499                 1.1464                 1.2142
 Frc consts  --      1.3635                 1.2058                 1.2838
 IR Inten    --      9.9249                 5.1339                24.1278

                     40                     41                     42
                      A                      A                      A
 Frequencies --   1367.6610              1371.9413              1394.3442
 Red. masses --      1.3462                 2.2019                 1.3304
 Frc consts  --      1.4836                 2.4418                 1.5239
 IR Inten    --      1.7191                54.6084                11.1568

                     43                     44                     45
                      A                      A                      A
 Frequencies --   1401.2456              1402.8942              1439.4541
 Red. masses --      1.4102                 1.3881                 1.4728
 Frc consts  --      1.6314                 1.6096                 1.7980
 IR Inten    --      3.6229                13.5203                 8.5980

                     46                     47                     48
                      A                      A                      A
 Frequencies --   1485.8646              1492.9652              1497.6140
 Red. masses --      1.0816                 1.0822                 1.1028
 Frc consts  --      1.4069                 1.4212                 1.4573
 IR Inten    --      5.2837                 9.1993                 5.2273

                     49                     50                     51
                      A                      A                      A
 Frequencies --   1523.8090              1655.5647              1665.6201
 Red. masses --      1.0897                 1.0874                 1.0912
 Frc consts  --      1.4908                 1.7560                 1.7836
 IR Inten    --      1.6152                34.3177                51.0731

                     52                     53                     54
                      A                      A                      A
 Frequencies --   1797.7227              2946.3558              3011.4548
 Red. masses --     10.5310                 1.0732                 1.0673
 Frc consts  --     20.0524                 5.4890                 5.7027
 IR Inten    --    376.4078               129.9619                35.1632

                     55                     56                     57
                      A                      A                      A
 Frequencies --   3022.8249              3028.6022              3039.2600
 Red. masses --      1.0650                 1.0790                 1.0760
 Frc consts  --      5.7336                 5.8311                 5.8561
 IR Inten    --     79.9638                15.9097                11.5473

                     58                     59                     60
                      A                      A                      A
 Frequencies --   3055.9594              3062.3158              3100.6947
 Red. masses --      1.0961                 1.0865                 1.0968
 Frc consts  --      6.0311                 6.0031                 6.2128
 IR Inten    --     81.3521               101.4154                37.4571

                     61                     62                     63
                      A                      A                      A
 Frequencies --   3113.9489              3473.9748              3494.6838
 Red. masses --      1.0930                 1.0510                 1.0504
 Frc consts  --      6.2443                 7.4730                 7.5585
 IR Inten    --     41.2548                 2.5817                 0.7501

                     64                     65                     66
                      A                      A                      A
 Frequencies --   3552.0317              3573.8547              3737.4918
 Red. masses --      1.0912                 1.0918                 1.0645
 Frc consts  --      8.1119                 8.2162                 8.7610
 IR Inten    --      0.2557                 1.9043                91.0891

 - Thermochemistry -
 -------------------
 Temperature   298.150 Kelvin.  Pressure   1.00000 Atm.
 Atom     1 has atomic number  7 and mass  14.00307

 Molecular mass:   146.10553 amu.
 Principal axes and moments of inertia in atomic units:
                           1         2         3
     Eigenvalues --   659.410423273.327513638.54195
           X            0.99996   0.00727  -0.00515
           Y           -0.00720   0.99986   0.01500
           Z            0.00526  -0.01496   0.99987
 This molecule is an asymmetric top.
 Rotational symmetry number  1.
 Warning -- assumption of classical behavior for rotation
           may cause significant error
 Rotational temperatures (Kelvin)      0.13135     0.02646     0.02380
 Rotational constants (GHZ):           2.73690     0.55135     0.49601
 Zero-point vibrational energy     555902.0 (Joules/Mol)
                                  132.86377 (Kcal/Mol)
 Warning -- explicit consideration of  16 degrees of freedom as
           vibrations may cause significant error
 Vibrational temperatures:     36.23    49.91    76.64   116.53   218.66
          (Kelvin)            306.24   320.45   382.59   387.27   428.57
                              456.01   529.92   605.99   712.68   748.09
                              824.47   927.88  1027.77  1097.79  1176.41
                             1223.38  1233.75  1299.52  1311.21  1385.36
                             1405.53  1475.74  1529.58  1586.42  1599.29
                             1626.24  1670.25  1702.13  1722.85  1809.73
                             1871.12  1883.81  1922.43  1927.37  1967.76
                             1973.92  2006.15  2016.08  2018.45  2071.05
                             2137.83  2148.04  2154.73  2192.42  2381.99
                             2396.46  2586.52  4239.15  4332.81  4349.17
                             4357.48  4372.82  4396.84  4405.99  4461.21
                             4480.28  4998.27  5028.07  5110.58  5141.98
                             5377.42

 Zero-point correction=                           0.211732 (Hartree/Particle)
 Thermal correction to Energy=                    0.223653
 Thermal correction to Enthalpy=                  0.224598
 Thermal correction to Gibbs Free Energy=         0.172051
 Sum of electronic and zero-point Energies=           -496.845621
 Sum of electronic and thermal Energies=              -496.833699
 Sum of electronic and thermal Enthalpies=            -496.832755
 Sum of electronic and thermal Free Energies=         -496.885302

                     E (Thermal)             CV                S
                      KCal/Mol        Cal/Mol-Kelvin    Cal/Mol-Kelvin
 Total                  140.345             42.608            110.594
 Electronic               0.000              0.000              0.000
 Translational            0.889              2.981             40.848
 Rotational               0.889              2.981             30.441
 Vibrational            138.567             36.647             39.304
 Vibration     1          0.593              1.985              6.177
 Vibration     2          0.594              1.983              5.541
 Vibration     3          0.596              1.976              4.692
 Vibration     4          0.600              1.962              3.867
 Vibration     5          0.619              1.900              2.647
 Vibration     6          0.644              1.821              2.019
 Vibration     7          0.648              1.806              1.937
 Vibration     8          0.672              1.736              1.623
 Vibration     9          0.674              1.730              1.602
 Vibration    10          0.691              1.678              1.429
 Vibration    11          0.704              1.641              1.326
 Vibration    12          0.741              1.537              1.087
 Vibration    13          0.784              1.424              0.888
 Vibration    14          0.851              1.260              0.670
 Vibration    15          0.875              1.206              0.610
 Vibration    16          0.929              1.090              0.498

 Optimization completed.
    -- Stationary point found.
 Normal termination of Gaussian 16 at Thu Jul 18 05:41:59 2024.
 Gaussian 16:  ES64L-G16RevA.03 25-Dec-2016

 ----------------------------------------------------------------------
 # TD(NStates=10, Root=1) B3LYP/6-31G** SCRF=(Solvent=water) volume pop
 =NPA density=current Geom=AllCheck Guess=Read
 ----------------------------------------------------------------------

 Structure from the checkpoint file:  "KDXKERNSBIXSRK-YFKPBYRVSA-N_conf_3_2.chk"
 ----------------------------------
 KDXKERNSBIXSRK-YFKPBYRVSA-N_conf_3
 ----------------------------------
 Charge =  0 Multiplicity = 1

                         Standard orientation:
 ---------------------------------------------------------------------
 Center     Atomic      Atomic             Coordinates (Angstroms)
 Number     Number       Type             X           Y           Z
 ---------------------------------------------------------------------
      1          7           0       -0.515190   -1.296218    0.706223
      2          6           0       -1.123346    0.013314    0.487700
      3          6           0       -0.238031    0.928434   -0.386760
      4          6           0        1.020077    1.493079    0.298975
      5          6           0        2.161468    0.512548    0.613932
      6          6           0        2.805856   -0.118132   -0.622820
      7          7           0        3.932321   -0.983507   -0.234757
      8          6           0       -2.549435   -0.003962   -0.089027
      9          8           0       -3.026811   -1.248322   -0.293020
     10          8           0       -3.203929    0.993449   -0.327334
     11          1           0       -0.441669   -1.785290   -0.183793
     12          1           0       -1.130129   -1.867597    1.281162
     13          1           0       -1.237703    0.498817    1.467274
     14          1           0        0.027413    0.386260   -1.303945
     15          1           0       -0.859243    1.772905   -0.699593
     16          1           0        1.413309    2.291415   -0.345309
     17          1           0        0.711585    1.986394    1.230319
     18          1           0        2.938310    1.062622    1.164560
     19          1           0        1.802437   -0.284910    1.269888
     20          1           0        3.090798    0.681667   -1.329755
     21          1           0        2.073669   -0.746010   -1.144039
     22          1           0        4.671579   -0.400431    0.156046
     23          1           0        4.337617   -1.397257   -1.072577
     24          1           0       -3.931511   -1.153220   -0.639669
 ---------------------------------------------------------------------

 SCF Done:  E(RB3LYP) =  -497.057352818     A.U. after    1 cycles

 Excitation energies and oscillator strengths:

 Excited State   1:      Singlet-A      5.2325 eV  236.95 nm  f=0.0023  <S**2>=0.000
      38 -> 41        -0.18318
      39 -> 41         0.65724
      40 -> 41         0.17922
 This state for optimization and/or second-order correction.
 Total Energy, E(TD-HF/TD-DFT) =  -496.865060361
 Copying the excited state density for this state as the 1-particle RhoCI density.

 Excited State   2:      Singlet-A      6.0587 eV  204.64 nm  f=0.0000  <S**2>=0.000
      39 -> 41        -0.18060
      40 -> 41         0.68324

 Excited State   3:      Singlet-A      6.6663 eV  185.99 nm  f=0.0003  <S**2>=0.000
      38 -> 41         0.67289
      39 -> 41         0.18473

 Excited State   4:      Singlet-A      7.2609 eV  170.76 nm  f=0.0003  <S**2>=0.000
      39 -> 42         0.65691
      40 -> 42         0.20780

 Excited State   5:      Singlet-A      7.4322 eV  166.82 nm  f=0.0106  <S**2>=0.000
      39 -> 42        -0.13630
      39 -> 43        -0.13208
      40 -> 42         0.39096
      40 -> 43         0.54162
      40 -> 44        -0.11889

 Excited State   6:      Singlet-A      7.7947 eV  159.06 nm  f=0.0055  <S**2>=0.000
      39 -> 42        -0.15609
      40 -> 42         0.52573
      40 -> 43        -0.33396
      40 -> 44         0.26577

 Excited State   7:      Singlet-A      7.9018 eV  156.91 nm  f=0.0043  <S**2>=0.000
      35 -> 41        -0.13645
      37 -> 41         0.67599

 Excited State   8:      Singlet-A      8.0373 eV  154.26 nm  f=0.0575  <S**2>=0.000
      35 -> 41         0.66609
      36 -> 41         0.14624
      37 -> 41         0.14035

 Excited State   9:      Singlet-A      8.0485 eV  154.05 nm  f=0.0839  <S**2>=0.000
      34 -> 41        -0.14083
      35 -> 41        -0.11803
      36 -> 41         0.48603
      38 -> 42        -0.13917
      39 -> 43        -0.28986
      39 -> 44        -0.30556

 Excited State  10:      Singlet-A      8.1893 eV  151.40 nm  f=0.0062  <S**2>=0.000
      34 -> 41         0.41395
      36 -> 41        -0.27770
      39 -> 43        -0.34203
      39 -> 44        -0.25101
      39 -> 45         0.15949

 The electronic state is 1-A.
 Alpha  occ. eigenvalues --  -19.20104 -19.14180 -14.31859 -14.30727 -10.32023
 Alpha  occ. eigenvalues --  -10.22926 -10.19816 -10.18523 -10.17918 -10.16867
 Alpha  occ. eigenvalues --   -1.10840  -1.01624  -0.89285  -0.87123  -0.78463
 Alpha  occ. eigenvalues --   -0.73131  -0.67780  -0.62918  -0.59573  -0.55970
 Alpha  occ. eigenvalues --   -0.50436  -0.49155  -0.48590  -0.47547  -0.45889
 Alpha  occ. eigenvalues --   -0.44390  -0.43272  -0.42539  -0.40392  -0.39110
 Alpha  occ. eigenvalues --   -0.37928  -0.36047  -0.35419  -0.32907  -0.32074
 Alpha  occ. eigenvalues --   -0.31702  -0.31338  -0.29939  -0.23679  -0.23462
 Alpha virt. eigenvalues --    0.00491   0.07080   0.09219   0.10417   0.10664
 Alpha virt. eigenvalues --    0.12107   0.14497   0.15120   0.16889   0.17342
 Alpha virt. eigenvalues --    0.17529   0.18811   0.19311   0.19863   0.21607

 Mulliken charges:
               1
     1  N   -0.457484
     2  C   -0.007005
     3  C   -0.177386
     4  C   -0.196733
     5  C   -0.171241
     6  C   -0.048576
     7  N   -0.646936
     8  C    0.377591
     9  O   -0.532792
    10  O   -0.496676
    11  H    0.312778
    12  H    0.319646
    13  H    0.110179
    14  H    0.097206
    15  H    0.115453
    16  H    0.097866
    17  H    0.094785
    18  H    0.093050
    19  H    0.104963
    20  H    0.081621
    21  H    0.101403
    22  H    0.248870
    23  H    0.250837
    24  H    0.328578
 Sum of Mulliken charges =  -0.00000

 Dipole moment (field-independent basis, Debye):
    X=              3.1388    Y=             -2.6953    Z=             -0.2842  Tot=              4.1470
 Quadrupole moment (field-independent basis, Debye-Ang):
   XX=            -62.2636   YY=            -61.1826   ZZ=            -59.1533
   XY=             13.2605   XZ=             -5.5331   YZ=              2.0495

 Summary of Natural Population Analysis:

                                       Natural Population
                Natural  -----------------------------------------------
    Atom  No    Charge         Core      Valence    Rydberg      Total
 -----------------------------------------------------------------------
      N    1   -0.61689      1.99951     5.60685    0.01053     7.61689
      C    2   -0.15234      1.99914     4.13294    0.02025     6.15234
      C    3   -0.47780      1.99929     4.46476    0.01375     6.47780
      C    4   -0.46844      1.99933     4.45657    0.01254     6.46844
      C    5   -0.47641      1.99932     4.46503    0.01207     6.47641
      C    6   -0.26154      1.99936     4.24900    0.01318     6.26154
      N    7   -0.92826      1.99968     5.91376    0.01481     7.92826
      C    8    0.46693      1.99944     3.48741    0.04622     5.53307
      O    9   -0.74252      1.99979     6.73216    0.01057     8.74252
      O   10   -0.56818      1.99980     6.54841    0.01997     8.56818
      H   11    0.41791      0.00000     0.57898    0.00311     0.58209
      H   12    0.42842      0.00000     0.56937    0.00221     0.57158
      H   13    0.23016      0.00000     0.76068    0.00916     0.76984
      H   14    0.23282      0.00000     0.76442    0.00275     0.76718
      H   15    0.25781      0.00000     0.73923    0.00297     0.74219
      H   16    0.24152      0.00000     0.75639    0.00209     0.75848
      H   17    0.23837      0.00000     0.75916    0.00247     0.76163
      H   18    0.23588      0.00000     0.76211    0.00201     0.76412
      H   19    0.23891      0.00000     0.75867    0.00241     0.76109
      H   20    0.20208      0.00000     0.79520    0.00272     0.79792
      H   21    0.22120      0.00000     0.77686    0.00194     0.77880
      H   22    0.38256      0.00000     0.61450    0.00294     0.61744
      H   23    0.38966      0.00000     0.60768    0.00266     0.61034
      H   24    0.50815      0.00000     0.48667    0.00518     0.49185
 =======================================================================
   * Total *    0.00000     19.99467    59.78681    0.21852    80.00000

 Normal termination of Gaussian 16 at Thu Jul 18 05:50:45 2024.
