 Gaussian 16, Revision A.03,

 -------------------------------------------------------
 # opt=CalcFc B3LYP/6-31G** SCRF=(Solvent=water) scf=xqc
 -------------------------------------------------------

 ----------------------------------
 KDXKERNSBIXSRK-YFKPBYRVSA-N_conf_0
 ----------------------------------
 Symbolic Z-matrix:
 Charge =  0 Multiplicity = 1

 SCF Done:  E(RB3LYP) =  -497.055890077     A.U. after   12 cycles
 SCF Done:  E(RB3LYP) =  -497.059801645     A.U. after   11 cycles
 SCF Done:  E(RB3LYP) =  -497.059633815     A.U. after   11 cycles
 SCF Done:  E(RB3LYP) =  -497.059974285     A.U. after   11 cycles
 SCF Done:  E(RB3LYP) =  -497.059999548     A.U. after   10 cycles
 SCF Done:  E(RB3LYP) =  -497.060003049     A.U. after    8 cycles
 SCF Done:  E(RB3LYP) =  -497.060002672     A.U. after    9 cycles
 SCF Done:  E(RB3LYP) =  -497.060001944     A.U. after    8 cycles
 SCF Done:  E(RB3LYP) =  -497.060003097     A.U. after    9 cycles
 SCF Done:  E(RB3LYP) =  -497.060002126     A.U. after    9 cycles
 Optimization completed.
    -- Stationary point found.
 Normal termination of Gaussian 16 at Thu Jul 18 05:18:57 2024.

 ----------------------------------------------------------------------
 # freq B3LYP/6-31G** SCRF=(Solvent=water) volume NMR pop=NPA density=c
 urrent Geom=AllCheck Guess=Read
 ----------------------------------------------------------------------

 Structure from the checkpoint file:  "KDXKERNSBIXSRK-YFKPBYRVSA-N_conf_0_1.chk"
 ----------------------------------
 KDXKERNSBIXSRK-YFKPBYRVSA-N_conf_0
 ----------------------------------
 Charge =  0 Multiplicity = 1

 SCF Done:  E(RB3LYP) =  -497.060002126     A.U. after    1 cycles

      1  N    Isotropic =   230.7078   Anisotropy =    20.3318

      2  C    Isotropic =   133.0132   Anisotropy =    21.4583

      3  C    Isotropic =   155.5700   Anisotropy =    27.0870

      4  C    Isotropic =   162.8604   Anisotropy =    18.2466

      5  C    Isotropic =   157.7765   Anisotropy =    24.6996

      6  C    Isotropic =   148.1508   Anisotropy =    36.6889

      7  N    Isotropic =   233.4416   Anisotropy =    32.1859

      8  C    Isotropic =    20.1887   Anisotropy =   101.1134

      9  O    Isotropic =   138.3102   Anisotropy =   156.9553

     10  O    Isotropic =   -31.3874   Anisotropy =   496.7323

     11  H    Isotropic =    31.2411   Anisotropy =    11.4059

     12  H    Isotropic =    30.6221   Anisotropy =    14.7110

     13  H    Isotropic =    28.5419   Anisotropy =     4.7506

     14  H    Isotropic =    30.0915   Anisotropy =     6.1430

     15  H    Isotropic =    30.1890   Anisotropy =     4.7280

     16  H    Isotropic =    30.2717   Anisotropy =     7.1586

     17  H    Isotropic =    29.7877   Anisotropy =     5.1594

     18  H    Isotropic =    30.0891   Anisotropy =     7.2754

     19  H    Isotropic =    30.3738   Anisotropy =     5.2590

     20  H    Isotropic =    28.5923   Anisotropy =     7.3709

     21  H    Isotropic =    29.4602   Anisotropy =     5.1564

     22  H    Isotropic =    31.6762   Anisotropy =    12.3209

     23  H    Isotropic =    31.0769   Anisotropy =    15.3709

     24  H    Isotropic =    25.4340   Anisotropy =    11.7494

  Exact polarizability: 112.925   0.914 101.125  -3.138  -5.791  97.472
 Approx polarizability: 112.279   0.918 117.600  -3.458 -11.073 111.495

                      1                      2                      3
                      A                      A                      A
 Frequencies --     23.8543                36.8608                69.2760
 Red. masses --      7.8379                 3.2324                 2.1127
 Frc consts  --      0.0026                 0.0026                 0.0060
 IR Inten    --      3.6518                 0.8215                 7.0936

                      4                      5                      6
                      A                      A                      A
 Frequencies --     79.5301               111.8110               174.2596
 Red. masses --      3.6270                 2.9481                 2.5255
 Frc consts  --      0.0135                 0.0217                 0.0452
 IR Inten    --      0.9000                 2.0611                 1.9475

                      7                      8                      9
                      A                      A                      A
 Frequencies --    239.8210               246.7486               251.9916
 Red. masses --      1.3736                 2.4591                 1.2961
 Frc consts  --      0.0465                 0.0882                 0.0485
 IR Inten    --     37.0057                20.8493                47.6285

                     10                     11                     12
                      A                      A                      A
 Frequencies --    280.3517               299.3950               343.6432
 Red. masses --      2.0815                 3.0235                 2.9647
 Frc consts  --      0.0964                 0.1597                 0.2063
 IR Inten    --     21.0889                16.5083                 9.0302

                     13                     14                     15
                      A                      A                      A
 Frequencies --    399.1675               500.3542               528.1717
 Red. masses --      2.8999                 3.4478                 3.9309
 Frc consts  --      0.2722                 0.5086                 0.6461
 IR Inten    --      7.4777                29.4190                13.1246

                     16                     17                     18
                      A                      A                      A
 Frequencies --    606.1832               641.6819               730.1413
 Red. masses --      1.9912                 1.6164                 2.3359
 Frc consts  --      0.4311                 0.3921                 0.7337
 IR Inten    --     93.4117               122.4099                52.9632

                     19                     20                     21
                      A                      A                      A
 Frequencies --    770.2915               792.3219               833.1478
 Red. masses --      1.5621                 1.2031                 3.0496
 Frc consts  --      0.5461                 0.4450                 1.2472
 IR Inten    --      0.8122                12.4422                97.8927

                     22                     23                     24
                      A                      A                      A
 Frequencies --    885.2949               894.9940               936.1205
 Red. masses --      1.4458                 1.9175                 2.1111
 Frc consts  --      0.6676                 0.9050                 1.0900
 IR Inten    --    100.4669                18.1103               166.7709

                     25                     26                     27
                      A                      A                      A
 Frequencies --    957.9965               986.7261              1030.9260
 Red. masses --      2.0393                 1.8540                 1.4809
 Frc consts  --      1.1027                 1.0635                 0.9274
 IR Inten    --     93.3528                 7.3405                 1.3430

                     28                     29                     30
                      A                      A                      A
 Frequencies --   1058.3494              1089.4220              1109.5288
 Red. masses --      2.9790                 2.1819                 1.3566
 Frc consts  --      1.9660                 1.5257                 0.9839
 IR Inten    --     15.1881                 8.1947                49.6522

                     31                     32                     33
                      A                      A                      A
 Frequencies --   1121.4712              1156.7844              1183.2383
 Red. masses --      1.5525                 2.1724                 2.2440
 Frc consts  --      1.1504                 1.7127                 1.8510
 IR Inten    --     57.8088               111.0133               186.0920

                     34                     35                     36
                      A                      A                      A
 Frequencies --   1223.2505              1263.8964              1289.2500
 Red. masses --      1.5819                 1.3588                 1.4159
 Frc consts  --      1.3946                 1.2789                 1.3866
 IR Inten    --      2.0901                 4.0866                 4.2941

                     37                     38                     39
                      A                      A                      A
 Frequencies --   1294.4510              1333.7342              1342.7421
 Red. masses --      1.2849                 1.1922                 1.2443
 Frc consts  --      1.2685                 1.2495                 1.3218
 IR Inten    --      0.0394                 5.3041                13.6596

                     40                     41                     42
                      A                      A                      A
 Frequencies --   1348.5894              1371.0798              1373.0060
 Red. masses --      1.2136                 1.6522                 1.7603
 Frc consts  --      1.3005                 1.8299                 1.9552
 IR Inten    --      0.8207                51.8045                30.0976

                     43                     44                     45
                      A                      A                      A
 Frequencies --   1399.9510              1404.3474              1439.3630
 Red. masses --      1.3087                 1.5290                 1.4787
 Frc consts  --      1.5112                 1.7767                 1.8050
 IR Inten    --     13.8080                 5.2177                 9.2936

                     46                     47                     48
                      A                      A                      A
 Frequencies --   1488.2549              1496.5968              1509.0262
 Red. masses --      1.0793                 1.0896                 1.0955
 Frc consts  --      1.4085                 1.4379                 1.4698
 IR Inten    --      0.5765                 2.0215                 6.4569

                     49                     50                     51
                      A                      A                      A
 Frequencies --   1526.5237              1655.8833              1662.5403
 Red. masses --      1.0902                 1.0868                 1.0923
 Frc consts  --      1.4968                 1.7558                 1.7789
 IR Inten    --      1.2514                36.6850                45.5593

                     52                     53                     54
                      A                      A                      A
 Frequencies --   1798.2196              2972.7771              3012.6523
 Red. masses --     10.4935                 1.0704                 1.0659
 Frc consts  --     19.9920                 5.5734                 5.7001
 IR Inten    --    379.9106               110.0673                41.2184

                     55                     56                     57
                      A                      A                      A
 Frequencies --   3028.7598              3035.2473              3044.5197
 Red. masses --      1.0661                 1.0717                 1.0836
 Frc consts  --      5.7623                 5.8173                 5.9176
 IR Inten    --     13.9991                21.7415                73.8824

                     58                     59                     60
                      A                      A                      A
 Frequencies --   3045.6928              3067.8015              3077.0791
 Red. masses --      1.0786                 1.0982                 1.0975
 Frc consts  --      5.8950                 6.0896                 6.1226
 IR Inten    --     47.2726                81.7945                42.9691

                     61                     62                     63
                      A                      A                      A
 Frequencies --   3098.0212              3473.3576              3492.9438
 Red. masses --      1.1012                 1.0511                 1.0506
 Frc consts  --      6.2271                 7.4709                 7.5523
 IR Inten    --     88.6694                 1.9491                 0.7592

                     64                     65                     66
                      A                      A                      A
 Frequencies --   3550.6641              3572.4908              3736.0516
 Red. masses --      1.0911                 1.0916                 1.0645
 Frc consts  --      8.1049                 8.2087                 8.7542
 IR Inten    --      0.2169                 2.1916                90.1571

 - Thermochemistry -
 -------------------
 Temperature   298.150 Kelvin.  Pressure   1.00000 Atm.
 Atom     1 has atomic number  7 and mass  14.00307

 Molecular mass:   146.10553 amu.
 Principal axes and moments of inertia in atomic units:
                           1         2         3
     Eigenvalues --   688.235323789.529583986.85906
           X            0.99992   0.01235   0.00179
           Y           -0.01241   0.99911   0.04043
           Z           -0.00129  -0.04045   0.99918
 This molecule is an asymmetric top.
 Rotational symmetry number  1.
 Warning -- assumption of classical behavior for rotation
           may cause significant error
 Rotational temperatures (Kelvin)      0.12585     0.02286     0.02172
 Rotational constants (GHZ):           2.62227     0.47624     0.45267
 Zero-point vibrational energy     555059.0 (Joules/Mol)
                                  132.66229 (Kcal/Mol)
 Warning -- explicit consideration of  16 degrees of freedom as
           vibrations may cause significant error
 Vibrational temperatures:     34.32    53.03    99.67   114.43   160.87
          (Kelvin)            250.72   345.05   355.02   362.56   403.36
                              430.76   494.43   574.31   719.90   759.92
                              872.16   923.24  1050.51  1108.28  1139.97
                             1198.71  1273.74  1287.70  1346.87  1378.34
                             1419.68  1483.27  1522.73  1567.44  1596.36
                             1613.55  1664.35  1702.42  1759.98  1818.46
                             1854.94  1862.43  1918.95  1931.91  1940.32
                             1972.68  1975.45  2014.22  2020.54  2070.92
                             2141.27  2153.27  2171.15  2196.33  2382.45
                             2392.02  2587.24  4277.16  4334.53  4357.71
                             4367.04  4380.38  4382.07  4413.88  4427.23
                             4457.36  4997.39  5025.57  5108.61  5140.02
                             5375.35

 Zero-point correction=                           0.211411 (Hartree/Particle)
 Thermal correction to Energy=                    0.223520
 Thermal correction to Enthalpy=                  0.224464
 Thermal correction to Gibbs Free Energy=         0.171375
 Sum of electronic and zero-point Energies=           -496.848591
 Sum of electronic and thermal Energies=              -496.836482
 Sum of electronic and thermal Enthalpies=            -496.835538
 Sum of electronic and thermal Free Energies=         -496.888627

                     E (Thermal)             CV                S
                      KCal/Mol        Cal/Mol-Kelvin    Cal/Mol-Kelvin
 Total                  140.261             42.785            111.736
 Electronic               0.000              0.000              0.000
 Translational            0.889              2.981             40.848
 Rotational               0.889              2.981             30.720
 Vibrational            138.484             36.823             40.167
 Vibration     1          0.593              1.985              6.284
 Vibration     2          0.594              1.982              5.421
 Vibration     3          0.598              1.969              4.174
 Vibration     4          0.600              1.963              3.902
 Vibration     5          0.607              1.940              3.237
 Vibration     6          0.627              1.874              2.389
 Vibration     7          0.657              1.780              1.804
 Vibration     8          0.661              1.768              1.754
 Vibration     9          0.664              1.759              1.717
 Vibration    10          0.680              1.710              1.532
 Vibration    11          0.692              1.675              1.420
 Vibration    12          0.722              1.588              1.195
 Vibration    13          0.765              1.472              0.966
 Vibration    14          0.856              1.249              0.657
 Vibration    15          0.883              1.188              0.591
 Vibration    16          0.965              1.019              0.439

 Optimization completed.
    -- Stationary point found.
 Normal termination of Gaussian 16 at Thu Jul 18 05:25:33 2024.
 Gaussian 16:  ES64L-G16RevA.03 25-Dec-2016

 ----------------------------------------------------------------------
 # TD(NStates=10, Root=1) B3LYP/6-31G** SCRF=(Solvent=water) volume pop
 =NPA density=current Geom=AllCheck Guess=Read
 ----------------------------------------------------------------------

 Structure from the checkpoint file:  "KDXKERNSBIXSRK-YFKPBYRVSA-N_conf_0_2.chk"
 ----------------------------------
 KDXKERNSBIXSRK-YFKPBYRVSA-N_conf_0
 ----------------------------------
 Charge =  0 Multiplicity = 1

                         Standard orientation:
 ---------------------------------------------------------------------
 Center     Atomic      Atomic             Coordinates (Angstroms)
 Number     Number       Type             X           Y           Z
 ---------------------------------------------------------------------
      1          7           0        1.551323    1.777855   -0.278804
      2          6           0        1.461307    0.489081    0.400844
      3          6           0        0.060051   -0.136113    0.229849
      4          6           0       -1.057584    0.706948    0.857390
      5          6           0       -2.451523    0.064222    0.782498
      6          6           0       -3.035372   -0.034282   -0.629591
      7          7           0       -4.411199   -0.558585   -0.582919
      8          6           0        2.517992   -0.555902    0.017351
      9          8           0        3.324454   -0.158311   -0.987313
     10          8           0        2.629439   -1.640726    0.556644
     11          1           0        1.470631    1.633794   -1.283855
     12          1           0        2.475802    2.177472   -0.134473
     13          1           0        1.621306    0.661800    1.473710
     14          1           0        0.075365   -1.131349    0.686902
     15          1           0       -0.124038   -0.284700   -0.842324
     16          1           0       -0.808772    0.881383    1.912637
     17          1           0       -1.078947    1.694080    0.381978
     18          1           0       -3.149734    0.646783    1.395855
     19          1           0       -2.415446   -0.940964    1.227876
     20          1           0       -2.367368   -0.632788   -1.270498
     21          1           0       -3.073595    0.969432   -1.072582
     22          1           0       -4.379627   -1.525216   -0.260271
     23          1           0       -4.777212   -0.611295   -1.532061
     24          1           0        3.950399   -0.884755   -1.155523
 ---------------------------------------------------------------------

 SCF Done:  E(RB3LYP) =  -497.060002126     A.U. after    1 cycles

 Excitation energies and oscillator strengths:

 Excited State   1:      Singlet-A      5.2935 eV  234.22 nm  f=0.0028  <S**2>=0.000
      38 -> 41        -0.18945
      39 -> 41         0.66464
      40 -> 41         0.13818
 This state for optimization and/or second-order correction.
 Total Energy, E(TD-HF/TD-DFT) =  -496.865467886
 Copying the excited state density for this state as the 1-particle RhoCI density.

 Excited State   2:      Singlet-A      6.1158 eV  202.73 nm  f=0.0019  <S**2>=0.000
      39 -> 41        -0.13655
      40 -> 41         0.69289

 Excited State   3:      Singlet-A      6.6941 eV  185.21 nm  f=0.0006  <S**2>=0.000
      38 -> 41         0.66703
      39 -> 41         0.19604

 Excited State   4:      Singlet-A      7.3972 eV  167.61 nm  f=0.0019  <S**2>=0.000
      39 -> 42         0.66735
      40 -> 42         0.15587

 Excited State   5:      Singlet-A      7.4905 eV  165.52 nm  f=0.0161  <S**2>=0.000
      39 -> 43        -0.11514
      40 -> 42         0.10285
      40 -> 43         0.67388
      40 -> 44        -0.10310

 Excited State   6:      Singlet-A      7.9610 eV  155.74 nm  f=0.0056  <S**2>=0.000
      39 -> 42        -0.14625
      40 -> 42         0.65581
      40 -> 43        -0.13653
      40 -> 44        -0.15077

 Excited State   7:      Singlet-A      8.0699 eV  153.64 nm  f=0.0374  <S**2>=0.000
      32 -> 41        -0.10111
      33 -> 41        -0.10439
      36 -> 41        -0.44438
      37 -> 41         0.47468
      39 -> 44         0.14456

 Excited State   8:      Singlet-A      8.1014 eV  153.04 nm  f=0.1297  <S**2>=0.000
      34 -> 41         0.24155
      35 -> 41        -0.12262
      36 -> 41         0.49154
      37 -> 41         0.35479
      39 -> 44         0.13456

 Excited State   9:      Singlet-A      8.2446 eV  150.38 nm  f=0.0360  <S**2>=0.000
      33 -> 41         0.11165
      34 -> 41         0.43296
      35 -> 41         0.52416

 Excited State  10:      Singlet-A      8.2873 eV  149.61 nm  f=0.0093  <S**2>=0.000
      34 -> 41        -0.37920
      35 -> 41         0.27880
      36 -> 41         0.10491
      38 -> 42        -0.15392
      39 -> 44         0.37931
      39 -> 45         0.21858
      40 -> 44         0.11531

 The electronic state is 1-A.
 Alpha  occ. eigenvalues --  -19.20091 -19.14144 -14.31874 -14.30851 -10.32010
 Alpha  occ. eigenvalues --  -10.22891 -10.20065 -10.18548 -10.17785 -10.17568
 Alpha  occ. eigenvalues --   -1.10808  -1.01603  -0.89320  -0.87302  -0.78748
 Alpha  occ. eigenvalues --   -0.73282  -0.67832  -0.62860  -0.59259  -0.56813
 Alpha  occ. eigenvalues --   -0.50191  -0.49726  -0.48538  -0.47170  -0.46064
 Alpha  occ. eigenvalues --   -0.44846  -0.44110  -0.41624  -0.40261  -0.39088
 Alpha  occ. eigenvalues --   -0.38883  -0.35868  -0.34949  -0.33003  -0.32480
 Alpha  occ. eigenvalues --   -0.32117  -0.31609  -0.29843  -0.23938  -0.23556
 Alpha virt. eigenvalues --    0.00559   0.07405   0.09070   0.10252   0.11461
 Alpha virt. eigenvalues --    0.11734   0.12991   0.14413   0.16535   0.17222
 Alpha virt. eigenvalues --    0.18131   0.18293   0.19432   0.20332   0.20703

 Mulliken charges:
               1
     1  N   -0.463453
     2  C   -0.019916
     3  C   -0.168193
     4  C   -0.185677
     5  C   -0.175736
     6  C   -0.049421
     7  N   -0.645802
     8  C    0.379684
     9  O   -0.529797
    10  O   -0.486887
    11  H    0.311329
    12  H    0.316777
    13  H    0.112841
    14  H    0.111879
    15  H    0.097960
    16  H    0.093573
    17  H    0.100159
    18  H    0.092933
    19  H    0.092424
    20  H    0.086570
    21  H    0.099637
    22  H    0.248892
    23  H    0.250605
    24  H    0.329618
 Sum of Mulliken charges =  -0.00000

 Dipole moment (field-independent basis, Debye):
    X=              0.6498    Y=              2.8797    Z=             -3.0152  Tot=              4.2198
 Quadrupole moment (field-independent basis, Debye-Ang):
   XX=            -66.4389   YY=            -59.8792   ZZ=            -58.1960
   XY=             13.4435   XZ=             -0.7855   YZ=              2.0178

 Summary of Natural Population Analysis:

                                       Natural Population
                Natural  -----------------------------------------------
    Atom  No    Charge         Core      Valence    Rydberg      Total
 -----------------------------------------------------------------------
      N    1   -0.62789      1.99953     5.61788    0.01049     7.62789
      C    2   -0.14866      1.99915     4.12926    0.02025     6.14866
      C    3   -0.47438      1.99930     4.46188    0.01320     6.47438
      C    4   -0.46592      1.99933     4.45488    0.01170     6.46592
      C    5   -0.47281      1.99933     4.46147    0.01201     6.47281
      C    6   -0.26107      1.99936     4.24869    0.01302     6.26107
      N    7   -0.92884      1.99968     5.91426    0.01489     7.92884
      C    8    0.46532      1.99944     3.48914    0.04611     5.53468
      O    9   -0.73872      1.99979     6.72833    0.01060     8.73872
      O   10   -0.55124      1.99981     6.53145    0.01999     8.55124
      H   11    0.41676      0.00000     0.58026    0.00298     0.58324
      H   12    0.42551      0.00000     0.57224    0.00225     0.57449
      H   13    0.23481      0.00000     0.75701    0.00819     0.76519
      H   14    0.24873      0.00000     0.74841    0.00286     0.75127
      H   15    0.23258      0.00000     0.76449    0.00292     0.76742
      H   16    0.23752      0.00000     0.76003    0.00245     0.76248
      H   17    0.23462      0.00000     0.76338    0.00201     0.76538
      H   18    0.23957      0.00000     0.75767    0.00276     0.76043
      H   19    0.22837      0.00000     0.76939    0.00224     0.77163
      H   20    0.20268      0.00000     0.79491    0.00241     0.79732
      H   21    0.22260      0.00000     0.77523    0.00217     0.77740
      H   22    0.38264      0.00000     0.61442    0.00294     0.61736
      H   23    0.38948      0.00000     0.60786    0.00266     0.61052
      H   24    0.50834      0.00000     0.48655    0.00511     0.49166
 =======================================================================
   * Total *   -0.00000     19.99471    59.78908    0.21622    80.00000

 Normal termination of Gaussian 16 at Thu Jul 18 05:33:40 2024.
