 Gaussian 16, Revision A.03,

 -------------------------------------------------------
 # opt=CalcFc B3LYP/6-31G** SCRF=(Solvent=water) scf=xqc
 -------------------------------------------------------

 ----------------------------------
 KDXKERNSBIXSRK-YFKPBYRVSA-N_conf_1
 ----------------------------------
 Symbolic Z-matrix:
 Charge =  0 Multiplicity = 1

 SCF Done:  E(RB3LYP) =  -497.055704679     A.U. after   12 cycles
 SCF Done:  E(RB3LYP) =  -497.059339158     A.U. after   10 cycles
 SCF Done:  E(RB3LYP) =  -497.059571223     A.U. after   10 cycles
 SCF Done:  E(RB3LYP) =  -497.059581670     A.U. after    9 cycles
 SCF Done:  E(RB3LYP) =  -497.059581863     A.U. after    7 cycles
 Optimization completed.
    -- Stationary point found.
 Normal termination of Gaussian 16 at Thu Jul 18 05:15:33 2024.

 ----------------------------------------------------------------------
 # freq B3LYP/6-31G** SCRF=(Solvent=water) volume NMR pop=NPA density=c
 urrent Geom=AllCheck Guess=Read
 ----------------------------------------------------------------------

 Structure from the checkpoint file:  "KDXKERNSBIXSRK-YFKPBYRVSA-N_conf_1_1.chk"
 ----------------------------------
 KDXKERNSBIXSRK-YFKPBYRVSA-N_conf_1
 ----------------------------------
 Charge =  0 Multiplicity = 1

 SCF Done:  E(RB3LYP) =  -497.059581863     A.U. after    1 cycles

      1  N    Isotropic =   234.1530   Anisotropy =    24.7844

      2  C    Isotropic =   136.6087   Anisotropy =    21.5550

      3  C    Isotropic =   155.9435   Anisotropy =    23.8547

      4  C    Isotropic =   164.7654   Anisotropy =    18.6674

      5  C    Isotropic =   157.9911   Anisotropy =    24.9285

      6  C    Isotropic =   147.5800   Anisotropy =    36.0148

      7  N    Isotropic =   232.5298   Anisotropy =    32.8424

      8  C    Isotropic =    22.4848   Anisotropy =    97.0036

      9  O    Isotropic =   148.3152   Anisotropy =   165.9579

     10  O    Isotropic =   -37.7786   Anisotropy =   517.6832

     11  H    Isotropic =    31.0720   Anisotropy =    13.5425

     12  H    Isotropic =    30.1335   Anisotropy =    14.4889

     13  H    Isotropic =    28.1437   Anisotropy =     5.9174

     14  H    Isotropic =    29.7135   Anisotropy =     5.4222

     15  H    Isotropic =    30.5515   Anisotropy =     4.8436

     16  H    Isotropic =    30.5661   Anisotropy =     6.0601

     17  H    Isotropic =    30.0777   Anisotropy =     6.7835

     18  H    Isotropic =    30.2764   Anisotropy =     7.2142

     19  H    Isotropic =    30.3016   Anisotropy =     5.4414

     20  H    Isotropic =    28.9609   Anisotropy =     5.7567

     21  H    Isotropic =    28.9876   Anisotropy =     6.2191

     22  H    Isotropic =    31.5745   Anisotropy =    12.5585

     23  H    Isotropic =    30.9965   Anisotropy =    15.3598

     24  H    Isotropic =    25.3627   Anisotropy =    12.6356

  Exact polarizability: 119.785   1.159 107.105  -5.128  -0.608  85.729
 Approx polarizability: 125.271   3.859 117.732  -8.707  -2.409  99.394

                      1                      2                      3
                      A                      A                      A
 Frequencies --     30.1682                55.9898                65.9380
 Red. masses --      4.1668                 4.2201                 4.0658
 Frc consts  --      0.0022                 0.0078                 0.0104
 IR Inten    --      2.3041                 0.9912                 1.3219

                      4                      5                      6
                      A                      A                      A
 Frequencies --     79.9430               116.4986               166.8202
 Red. masses --      2.3562                 2.4333                 3.1194
 Frc consts  --      0.0089                 0.0195                 0.0511
 IR Inten    --      6.6582                 4.7592                 1.4441

                      7                      8                      9
                      A                      A                      A
 Frequencies --    179.2290               243.6857               261.2198
 Red. masses --      1.0856                 2.2031                 1.7693
 Frc consts  --      0.0205                 0.0771                 0.0711
 IR Inten    --     88.7902                17.0838                 6.0908

                     10                     11                     12
                      A                      A                      A
 Frequencies --    275.8258               319.7184               347.9569
 Red. masses --      1.8348                 3.3573                 3.4693
 Frc consts  --      0.0822                 0.2022                 0.2475
 IR Inten    --     33.2004                15.6868                 1.0237

                     13                     14                     15
                      A                      A                      A
 Frequencies --    423.1979               500.1012               511.4753
 Red. masses --      2.9300                 3.7258                 3.7554
 Frc consts  --      0.3092                 0.5490                 0.5788
 IR Inten    --     24.4799                 9.2925                17.8927

                     16                     17                     18
                      A                      A                      A
 Frequencies --    589.1180               636.0453               721.9901
 Red. masses --      1.3826                 2.6300                 3.2661
 Frc consts  --      0.2827                 0.6269                 1.0031
 IR Inten    --     85.7208                79.7916                65.3741

                     19                     20                     21
                      A                      A                      A
 Frequencies --    747.3744               795.4676               863.3235
 Red. masses --      1.2490                 1.2688                 2.9755
 Frc consts  --      0.4110                 0.4730                 1.3066
 IR Inten    --      4.3633                22.9653                17.9749

                     22                     23                     24
                      A                      A                      A
 Frequencies --    881.6424               899.7828               912.7517
 Red. masses --      1.6211                 1.6365                 1.4408
 Frc consts  --      0.7424                 0.7806                 0.7072
 IR Inten    --     60.8646               108.9707               229.3590

                     25                     26                     27
                      A                      A                      A
 Frequencies --    963.6788               979.5966              1042.3977
 Red. masses --      1.9400                 2.1535                 1.7998
 Frc consts  --      1.0615                 1.2175                 1.1522
 IR Inten    --      9.5130                18.4685                 1.1308

                     28                     29                     30
                      A                      A                      A
 Frequencies --   1064.3431              1095.1935              1120.5219
 Red. masses --      2.8170                 2.4086                 2.3631
 Frc consts  --      1.8802                 1.7021                 1.7481
 IR Inten    --      9.9883                 7.7436               102.5221

                     31                     32                     33
                      A                      A                      A
 Frequencies --   1138.2549              1167.0624              1182.0262
 Red. masses --      1.9074                 1.6697                 1.4912
 Frc consts  --      1.4560                 1.3399                 1.2276
 IR Inten    --     21.1593               201.2993                40.4542

                     34                     35                     36
                      A                      A                      A
 Frequencies --   1212.8779              1242.3709              1288.9593
 Red. masses --      1.4362                 1.2554                 1.3289
 Frc consts  --      1.2448                 1.1417                 1.3008
 IR Inten    --     20.4857                19.9855                 1.8744

                     37                     38                     39
                      A                      A                      A
 Frequencies --   1300.8071              1327.3277              1339.9029
 Red. masses --      1.3239                 1.2699                 1.1408
 Frc consts  --      1.3199                 1.3182                 1.2067
 IR Inten    --      2.1528                17.6162                 6.2578

                     40                     41                     42
                      A                      A                      A
 Frequencies --   1352.1505              1370.2215              1373.6238
 Red. masses --      1.3962                 1.3748                 1.3125
 Frc consts  --      1.5040                 1.5208                 1.4591
 IR Inten    --     24.4192                 5.0890                 2.4672

                     43                     44                     45
                      A                      A                      A
 Frequencies --   1405.2259              1432.8544              1440.2383
 Red. masses --      1.6093                 2.0557                 1.4709
 Frc consts  --      1.8723                 2.4866                 1.7976
 IR Inten    --     12.9800                26.2684                 7.6792

                     46                     47                     48
                      A                      A                      A
 Frequencies --   1482.9258              1493.6692              1505.9763
 Red. masses --      1.0830                 1.0878                 1.1008
 Frc consts  --      1.4032                 1.4299                 1.4710
 IR Inten    --      0.8290                 2.4603                 5.8310

                     49                     50                     51
                      A                      A                      A
 Frequencies --   1526.0189              1636.0191              1656.9293
 Red. masses --      1.0896                 1.1072                 1.0875
 Frc consts  --      1.4950                 1.7460                 1.7590
 IR Inten    --      0.9855               102.7858                35.8641

                     52                     53                     54
                      A                      A                      A
 Frequencies --   1805.0046              2947.3616              2951.1163
 Red. masses --      9.2313                 1.0805                 1.0731
 Frc consts  --     17.7201                 5.5301                 5.5062
 IR Inten    --    439.3207                54.7478               120.9536

                     55                     56                     57
                      A                      A                      A
 Frequencies --   3015.9625              3021.6177              3042.0628
 Red. masses --      1.0650                 1.0631                 1.0657
 Frc consts  --      5.7074                 5.7188                 5.8106
 IR Inten    --     39.2162                43.3997                50.0970

                     58                     59                     60
                      A                      A                      A
 Frequencies --   3054.4697              3068.6457              3073.9091
 Red. masses --      1.0910                 1.0953                 1.0984
 Frc consts  --      5.9974                 6.0771                 6.1151
 IR Inten    --     17.9937                82.4100                97.7423

                     61                     62                     63
                      A                      A                      A
 Frequencies --   3111.0329              3475.8515              3506.2760
 Red. masses --      1.0984                 1.0510                 1.0510
 Frc consts  --      6.2637                 7.4813                 7.6129
 IR Inten    --     59.3583                 2.0459                 3.7707

                     64                     65                     66
                      A                      A                      A
 Frequencies --   3554.0803              3591.8291              3741.8991
 Red. masses --      1.0913                 1.0919                 1.0646
 Frc consts  --      8.1214                 8.2997                 8.7824
 IR Inten    --      0.1476                 7.6826               101.7044

 - Thermochemistry -
 -------------------
 Temperature   298.150 Kelvin.  Pressure   1.00000 Atm.
 Atom     1 has atomic number  7 and mass  14.00307

 Molecular mass:   146.10553 amu.
 Principal axes and moments of inertia in atomic units:
                           1         2         3
     Eigenvalues --   672.470983626.282864149.71899
           X            0.99997   0.00727   0.00015
           Y           -0.00727   0.99993   0.00901
           Z           -0.00008  -0.00901   0.99996
 This molecule is an asymmetric top.
 Rotational symmetry number  1.
 Warning -- assumption of classical behavior for rotation
           may cause significant error
 Rotational temperatures (Kelvin)      0.12880     0.02389     0.02087
 Rotational constants (GHZ):           2.68375     0.49768     0.43491
 Zero-point vibrational energy     554634.0 (Joules/Mol)
                                  132.56070 (Kcal/Mol)
 Warning -- explicit consideration of  16 degrees of freedom as
           vibrations may cause significant error
 Vibrational temperatures:     43.41    80.56    94.87   115.02   167.62
          (Kelvin)            240.02   257.87   350.61   375.84   396.85
                              460.00   500.63   608.89   719.53   735.90
                              847.61   915.13  1038.78  1075.31  1144.50
                             1242.13  1268.49  1294.59  1313.25  1386.52
                             1409.42  1499.78  1531.35  1575.74  1612.18
                             1637.69  1679.14  1700.67  1745.06  1787.49
                             1854.52  1871.57  1909.73  1927.82  1945.44
                             1971.44  1976.34  2021.81  2061.56  2072.18
                             2133.60  2149.06  2166.76  2195.60  2353.87
                             2383.95  2597.00  4240.60  4246.00  4339.30
                             4347.43  4376.85  4394.70  4415.10  4422.67
                             4476.08  5000.97  5044.75  5113.53  5167.84
                             5383.76

 Zero-point correction=                           0.211249 (Hartree/Particle)
 Thermal correction to Energy=                    0.223378
 Thermal correction to Enthalpy=                  0.224322
 Thermal correction to Gibbs Free Energy=         0.171632
 Sum of electronic and zero-point Energies=           -496.848333
 Sum of electronic and thermal Energies=              -496.836204
 Sum of electronic and thermal Enthalpies=            -496.835259
 Sum of electronic and thermal Free Energies=         -496.887950

                     E (Thermal)             CV                S
                      KCal/Mol        Cal/Mol-Kelvin    Cal/Mol-Kelvin
 Total                  140.172             42.851            110.896
 Electronic               0.000              0.000              0.000
 Translational            0.889              2.981             40.848
 Rotational               0.889              2.981             30.693
 Vibrational            138.395             36.890             39.354
 Vibration     1          0.594              1.984              5.818
 Vibration     2          0.596              1.975              4.594
 Vibration     3          0.597              1.971              4.271
 Vibration     4          0.600              1.963              3.892
 Vibration     5          0.608              1.936              3.158
 Vibration     6          0.624              1.883              2.471
 Vibration     7          0.629              1.868              2.336
 Vibration     8          0.659              1.773              1.776
 Vibration     9          0.669              1.744              1.654
 Vibration    10          0.677              1.718              1.559
 Vibration    11          0.706              1.636              1.312
 Vibration    12          0.726              1.579              1.175
 Vibration    13          0.785              1.420              0.881
 Vibration    14          0.856              1.250              0.658
 Vibration    15          0.867              1.225              0.630
 Vibration    16          0.946              1.055              0.469

 Optimization completed.
    -- Stationary point found.
 Normal termination of Gaussian 16 at Thu Jul 18 05:23:39 2024.
 Gaussian 16:  ES64L-G16RevA.03 25-Dec-2016

 ----------------------------------------------------------------------
 # TD(NStates=10, Root=1) B3LYP/6-31G** SCRF=(Solvent=water) volume pop
 =NPA density=current Geom=AllCheck Guess=Read
 ----------------------------------------------------------------------

 Structure from the checkpoint file:  "KDXKERNSBIXSRK-YFKPBYRVSA-N_conf_1_2.chk"
 ----------------------------------
 KDXKERNSBIXSRK-YFKPBYRVSA-N_conf_1
 ----------------------------------
 Charge =  0 Multiplicity = 1

                         Standard orientation:
 ---------------------------------------------------------------------
 Center     Atomic      Atomic             Coordinates (Angstroms)
 Number     Number       Type             X           Y           Z
 ---------------------------------------------------------------------
      1          7           0        1.895890    1.759192   -0.079393
      2          6           0        1.461481    0.439159    0.384227
      3          6           0        0.070092    0.076266   -0.177084
      4          6           0       -1.021245    1.059650    0.266066
      5          6           0       -2.417562    0.740117   -0.290387
      6          6           0       -3.036074   -0.554561    0.245038
      7          7           0       -4.385774   -0.747464   -0.308842
      8          6           0        2.514650   -0.585124   -0.016248
      9          8           0        2.131525   -1.848018    0.253598
     10          8           0        3.600137   -0.316491   -0.493941
     11          1           0        1.505223    2.473781    0.527795
     12          1           0        2.907245    1.819624    0.013420
     13          1           0        1.403903    0.364546    1.485761
     14          1           0       -0.178169   -0.938729    0.145772
     15          1           0        0.130733    0.066174   -1.272947
     16          1           0       -1.063281    1.085872    1.364617
     17          1           0       -0.742451    2.068766   -0.058458
     18          1           0       -3.090807    1.572423   -0.042704
     19          1           0       -2.381481    0.689832   -1.386405
     20          1           0       -3.012240   -0.530561    1.348990
     21          1           0       -2.429273   -1.415425   -0.059077
     22          1           0       -4.997613   -0.020300    0.059932
     23          1           0       -4.769386   -1.621421    0.046337
     24          1           0        2.865446   -2.433641   -0.002319
 ---------------------------------------------------------------------

 SCF Done:  E(RB3LYP) =  -497.059581863     A.U. after    1 cycles

 Excitation energies and oscillator strengths:

 Excited State   1:      Singlet-A      5.6774 eV  218.38 nm  f=0.0158  <S**2>=0.000
      38 -> 41        -0.16852
      39 -> 41         0.68563
 This state for optimization and/or second-order correction.
 Total Energy, E(TD-HF/TD-DFT) =  -496.850941876
 Copying the excited state density for this state as the 1-particle RhoCI density.

 Excited State   2:      Singlet-A      5.9076 eV  209.87 nm  f=0.0066  <S**2>=0.000
      38 -> 41         0.67565
      39 -> 41         0.17096

 Excited State   3:      Singlet-A      6.0831 eV  203.82 nm  f=0.0000  <S**2>=0.000
      40 -> 41         0.70679

 Excited State   4:      Singlet-A      7.4965 eV  165.39 nm  f=0.0145  <S**2>=0.000
      40 -> 43        -0.34692
      40 -> 44         0.60224

 Excited State   5:      Singlet-A      7.7682 eV  159.60 nm  f=0.0208  <S**2>=0.000
      39 -> 42        -0.32073
      39 -> 43         0.56132
      39 -> 44         0.22313
      39 -> 45        -0.14817

 Excited State   6:      Singlet-A      7.9590 eV  155.78 nm  f=0.0038  <S**2>=0.000
      37 -> 41         0.69170

 Excited State   7:      Singlet-A      8.1306 eV  152.49 nm  f=0.0148  <S**2>=0.000
      35 -> 41        -0.14435
      40 -> 42         0.48095
      40 -> 43        -0.33703
      40 -> 44        -0.27843
      40 -> 45        -0.19433

 Excited State   8:      Singlet-A      8.1415 eV  152.29 nm  f=0.0355  <S**2>=0.000
      33 -> 41         0.21764
      34 -> 41        -0.22404
      35 -> 41         0.56501
      36 -> 41         0.15539
      40 -> 42         0.12309

 Excited State   9:      Singlet-A      8.1681 eV  151.79 nm  f=0.0216  <S**2>=0.000
      39 -> 42         0.60996
      39 -> 43         0.29841

 Excited State  10:      Singlet-A      8.2631 eV  150.05 nm  f=0.0930  <S**2>=0.000
      34 -> 41         0.39101
      36 -> 41         0.52257
      38 -> 42         0.13642
      38 -> 43         0.12763

 The electronic state is 1-A.
 Alpha  occ. eigenvalues --  -19.20166 -19.14784 -14.31463 -14.30875 -10.32592
 Alpha  occ. eigenvalues --  -10.22943 -10.20105 -10.18323 -10.18014 -10.17656
 Alpha  occ. eigenvalues --   -1.11165  -1.02135  -0.88982  -0.87346  -0.78823
 Alpha  occ. eigenvalues --   -0.73780  -0.68240  -0.62496  -0.58640  -0.56561
 Alpha  occ. eigenvalues --   -0.51739  -0.49810  -0.48060  -0.47971  -0.45485
 Alpha  occ. eigenvalues --   -0.44267  -0.43737  -0.42828  -0.41049  -0.39033
 Alpha  occ. eigenvalues --   -0.37955  -0.36774  -0.35417  -0.33639  -0.32621
 Alpha  occ. eigenvalues --   -0.32530  -0.31585  -0.28101  -0.24430  -0.23635
 Alpha virt. eigenvalues --    0.00334   0.08368   0.08868   0.09055   0.11504
 Alpha virt. eigenvalues --    0.12306   0.12964   0.14916   0.16281   0.17026
 Alpha virt. eigenvalues --    0.17841   0.18490   0.19143   0.20326   0.20888

 Mulliken charges:
               1
     1  N   -0.306834
     2  C   -0.049141
     3  C   -0.162954
     4  C   -0.206666
     5  C   -0.173281
     6  C   -0.048542
     7  N   -0.646259
     8  C    0.339717
     9  O   -0.565840
    10  O   -0.649624
    11  H    0.356694
    12  H    0.355463
    13  H    0.139892
    14  H    0.133269
    15  H    0.106413
    16  H    0.100292
    17  H    0.096354
    18  H    0.092646
    19  H    0.096459
    20  H    0.082728
    21  H    0.104416
    22  H    0.249380
    23  H    0.251525
    24  H    0.303896
 Sum of Mulliken charges =  -0.00000

 Dipole moment (field-independent basis, Debye):
    X=             -3.8728    Y=              6.2217    Z=              3.8311  Tot=              8.2696
 Quadrupole moment (field-independent basis, Debye-Ang):
   XX=            -76.8004   YY=            -46.9151   ZZ=            -63.7762
   XY=             11.4234   XZ=             -1.2358   YZ=              1.7746

 Summary of Natural Population Analysis:

                                       Natural Population
                Natural  -----------------------------------------------
    Atom  No    Charge         Core      Valence    Rydberg      Total
 -----------------------------------------------------------------------
      N    1   -0.34878      1.99936     5.34347    0.00595     7.34878
      C    2   -0.18608      1.99906     4.17027    0.01675     6.18608
      C    3   -0.47689      1.99930     4.46427    0.01332     6.47689
      C    4   -0.47497      1.99933     4.46396    0.01167     6.47497
      C    5   -0.47140      1.99933     4.45966    0.01242     6.47140
      C    6   -0.26152      1.99936     4.24906    0.01311     6.26152
      N    7   -0.92788      1.99968     5.91340    0.01479     7.92788
      C    8    0.44783      1.99950     3.50452    0.04816     5.55217
      O    9   -0.78977      1.99978     6.77936    0.01064     8.78977
      O   10   -0.78300      1.99980     6.76535    0.01785     8.78300
      H   11    0.43086      0.00000     0.56665    0.00249     0.56914
      H   12    0.44256      0.00000     0.55367    0.00376     0.55744
      H   13    0.26173      0.00000     0.72742    0.01086     0.73827
      H   14    0.26239      0.00000     0.73600    0.00161     0.73761
      H   15    0.24449      0.00000     0.75223    0.00328     0.75551
      H   16    0.23428      0.00000     0.76262    0.00310     0.76572
      H   17    0.23261      0.00000     0.76567    0.00172     0.76739
      H   18    0.23569      0.00000     0.76215    0.00216     0.76431
      H   19    0.23434      0.00000     0.76293    0.00273     0.76566
      H   20    0.20212      0.00000     0.79515    0.00273     0.79788
      H   21    0.22328      0.00000     0.77480    0.00192     0.77672
      H   22    0.38295      0.00000     0.61410    0.00295     0.61705
      H   23    0.39029      0.00000     0.60706    0.00265     0.60971
      H   24    0.49302      0.00000     0.50101    0.00597     0.50698
 =======================================================================
   * Total *   -0.00185     19.99451    59.79477    0.21257    80.00185

 Normal termination of Gaussian 16 at Thu Jul 18 05:32:20 2024.
