 Gaussian 16, Revision A.03,

 -------------------------------------------------------
 # opt=CalcFc B3LYP/6-31G** SCRF=(Solvent=water) scf=xqc
 -------------------------------------------------------

 ----------------------------------
 XSZYBMMYQCYIPC-UHFFFAOYSA-N_conf_0
 ----------------------------------
 Symbolic Z-matrix:
 Charge =  0 Multiplicity = 1

 SCF Done:  E(RB3LYP) =  -421.617625407     A.U. after   12 cycles
 SCF Done:  E(RB3LYP) =  -421.621815355     A.U. after   10 cycles
 SCF Done:  E(RB3LYP) =  -421.622280323     A.U. after   10 cycles
 SCF Done:  E(RB3LYP) =  -421.622304537     A.U. after    9 cycles
 SCF Done:  E(RB3LYP) =  -421.622309696     A.U. after    8 cycles
 SCF Done:  E(RB3LYP) =  -421.622309707     A.U. after    5 cycles
 Optimization completed.
    -- Stationary point found.
 Normal termination of Gaussian 16 at Thu Jul 11 19:17:38 2024.

 ----------------------------------------------------------------------
 # freq B3LYP/6-31G** SCRF=(Solvent=water) volume NMR pop=NPA density=c
 urrent Geom=AllCheck Guess=Read
 ----------------------------------------------------------------------

 Structure from the checkpoint file:  "XSZYBMMYQCYIPC-UHFFFAOYSA-N_conf_0_1.chk"
 ----------------------------------
 XSZYBMMYQCYIPC-UHFFFAOYSA-N_conf_0
 ----------------------------------
 Charge =  0 Multiplicity = 1

 SCF Done:  E(RB3LYP) =  -421.622309707     A.U. after    1 cycles

      1  N    Isotropic =   208.9176   Anisotropy =    40.8632

      2  C    Isotropic =    63.6212   Anisotropy =   136.5521

      3  C    Isotropic =    79.0823   Anisotropy =   104.9824

      4  C    Isotropic =    68.3599   Anisotropy =   157.2134

      5  C    Isotropic =   171.3854   Anisotropy =    27.7138

      6  C    Isotropic =    68.3599   Anisotropy =   157.2134

      7  C    Isotropic =   171.3854   Anisotropy =    27.7138

      8  C    Isotropic =    79.0823   Anisotropy =   104.9824

      9  C    Isotropic =    63.6212   Anisotropy =   136.5521

     10  N    Isotropic =   208.9176   Anisotropy =    40.8632

     11  H    Isotropic =    29.2863   Anisotropy =    11.0163

     12  H    Isotropic =    29.0280   Anisotropy =    12.7605

     13  H    Isotropic =    25.3029   Anisotropy =     7.5081

     14  H    Isotropic =    30.0052   Anisotropy =     7.9247

     15  H    Isotropic =    29.6536   Anisotropy =     8.3482

     16  H    Isotropic =    29.6263   Anisotropy =     8.2027

     17  H    Isotropic =    29.6536   Anisotropy =     8.3482

     18  H    Isotropic =    29.6263   Anisotropy =     8.2027

     19  H    Isotropic =    30.0052   Anisotropy =     7.9247

     20  H    Isotropic =    25.3029   Anisotropy =     7.5081

     21  H    Isotropic =    29.0280   Anisotropy =    12.7605

     22  H    Isotropic =    29.2863   Anisotropy =    11.0163

  Exact polarizability: 181.446   0.000 149.206  -0.000  -0.227  60.802
 Approx polarizability: 207.440   0.000 175.649  -0.000  -1.823  73.062

                      1                      2                      3
                      A                      A                      A
 Frequencies --    121.4678               132.0743               143.2639
 Red. masses --      3.0717                 1.0537                 1.2343
 Frc consts  --      0.0267                 0.0108                 0.0149
 IR Inten    --      0.0838                 0.0148                 2.8824

                      4                      5                      6
                      A                      A                      A
 Frequencies --    181.7296               212.6314               278.2396
 Red. masses --      2.0362                 1.0684                 3.2876
 Frc consts  --      0.0396                 0.0285                 0.1500
 IR Inten    --     12.7015                41.2520                 1.4223

                      7                      8                      9
                      A                      A                      A
 Frequencies --    290.1629               309.3052               311.8940
 Red. masses --      2.7328                 3.0112                 3.2359
 Frc consts  --      0.1356                 0.1697                 0.1855
 IR Inten    --      0.0328                 0.3066                 0.8457

                     10                     11                     12
                      A                      A                      A
 Frequencies --    373.0272               435.3399               438.5406
 Red. masses --      3.7812                 1.0479                 4.7949
 Frc consts  --      0.3100                 0.1170                 0.5433
 IR Inten    --      2.8970                24.6314                 0.1428

                     13                     14                     15
                      A                      A                      A
 Frequencies --    457.1328               514.9575               560.8814
 Red. masses --      2.9270                 5.4529                 2.7723
 Frc consts  --      0.3604                 0.8520                 0.5138
 IR Inten    --     16.2397                 3.2240                 2.9046

                     16                     17                     18
                      A                      A                      A
 Frequencies --    626.8272               672.3946               701.0163
 Red. masses --      3.4921                 3.7508                 3.1499
 Frc consts  --      0.8084                 0.9991                 0.9120
 IR Inten    --     46.3232                88.8265                86.4482

                     19                     20                     21
                      A                      A                      A
 Frequencies --    754.2718               767.9010               800.2897
 Red. masses --      5.8362                 1.4574                 1.6636
 Frc consts  --      1.9563                 0.5063                 0.6277
 IR Inten    --     10.7986               230.1767               542.5015

                     22                     23                     24
                      A                      A                      A
 Frequencies --    849.5684               865.8198               867.1181
 Red. masses --      2.5030                 1.3685                 1.3716
 Frc consts  --      1.0644                 0.6044                 0.6076
 IR Inten    --      2.4219                21.0319                65.2938

                     25                     26                     27
                      A                      A                      A
 Frequencies --   1019.8416              1023.0087              1042.5794
 Red. masses --      1.3829                 1.5608                 1.4067
 Frc consts  --      0.8475                 0.9624                 0.9009
 IR Inten    --     30.8882                 1.4080                 8.6531

                     28                     29                     30
                      A                      A                      A
 Frequencies --   1068.8541              1111.8995              1132.9417
 Red. masses --      1.5455                 3.7331                 1.3519
 Frc consts  --      1.0403                 2.7193                 1.0223
 IR Inten    --      0.0230                 7.4272                 7.5103

                     31                     32                     33
                      A                      A                      A
 Frequencies --   1135.4261              1228.2730              1264.6675
 Red. masses --      1.5831                 1.5681                 2.4787
 Frc consts  --      1.2024                 1.3938                 2.3357
 IR Inten    --      0.8049                20.2284                36.9816

                     34                     35                     36
                      A                      A                      A
 Frequencies --   1325.1808              1337.2168              1377.8400
 Red. masses --      1.5204                 5.8520                 4.4505
 Frc consts  --      1.5731                 6.1654                 4.9780
 IR Inten    --      5.2559               129.2928                 7.9532

                     37                     38                     39
                      A                      A                      A
 Frequencies --   1417.9783              1427.4910              1461.4031
 Red. masses --      1.2639                 1.2417                 2.2632
 Frc consts  --      1.4973                 1.4908                 2.8478
 IR Inten    --      0.5697                 2.1781                 0.7261

                     40                     41                     42
                      A                      A                      A
 Frequencies --   1482.2436              1494.1100              1499.9688
 Red. masses --      1.0445                 1.0437                 1.0914
 Frc consts  --      1.3521                 1.3728                 1.4467
 IR Inten    --      0.0054                14.1293                 0.7460

                     43                     44                     45
                      A                      A                      A
 Frequencies --   1509.2394              1556.4963              1630.0053
 Red. masses --      1.3517                 3.3878                 1.2800
 Frc consts  --      1.8141                 4.8357                 2.0037
 IR Inten    --     31.2523               174.2215                66.0957

                     46                     47                     48
                      A                      A                      A
 Frequencies --   1631.3047              1661.3542              1677.5897
 Red. masses --      6.4243                 1.1119                 4.0111
 Frc consts  --     10.0727                 1.8082                 6.6510
 IR Inten    --     58.8657                40.5342                61.1561

                     49                     50                     51
                      A                      A                      A
 Frequencies --   3025.8114              3025.8950              3071.3148
 Red. masses --      1.0384                 1.0391                 1.1005
 Frc consts  --      5.6015                 5.6054                 6.1162
 IR Inten    --    124.1968                17.2871                77.3272

                     52                     53                     54
                      A                      A                      A
 Frequencies --   3074.5263              3118.0864              3119.0694
 Red. masses --      1.1004                 1.1001                 1.0996
 Frc consts  --      6.1286                 6.3015                 6.3029
 IR Inten    --      0.0264                62.6712                 6.9910

                     55                     56                     57
                      A                      A                      A
 Frequencies --   3158.9779              3161.7883              3511.0626
 Red. masses --      1.0896                 1.0900                 1.0511
 Frc consts  --      6.4061                 6.4201                 7.6347
 IR Inten    --     77.3898                 1.5620                 9.4898

                     58                     59                     60
                      A                      A                      A
 Frequencies --   3515.5095              3616.3519              3619.0730
 Red. masses --      1.0503                 1.0938                 1.0947
 Frc consts  --      7.6478                 8.4278                 8.4478
 IR Inten    --     10.4621                36.0403                 3.1476

 - Thermochemistry -
 -------------------
 Temperature   298.150 Kelvin.  Pressure   1.00000 Atm.
 Atom     1 has atomic number  7 and mass  14.00307

 Molecular mass:   136.10005 amu.
 Principal axes and moments of inertia in atomic units:
                           1         2         3
     Eigenvalues --   803.138461715.987742491.12010
           X            1.00000  -0.00000  -0.00000
           Y            0.00000   0.99997   0.00714
           Z            0.00000  -0.00714   0.99997
 This molecule is an asymmetric top.
 Rotational symmetry number  1.
 Warning -- assumption of classical behavior for rotation
           may cause significant error
 Rotational temperatures (Kelvin)      0.10784     0.05047     0.03477
 Rotational constants (GHZ):           2.24711     1.05172     0.72447
 Zero-point vibrational energy     497647.9 (Joules/Mol)
                                  118.94071 (Kcal/Mol)
 Warning -- explicit consideration of  15 degrees of freedom as
           vibrations may cause significant error
 Vibrational temperatures:    174.77   190.03   206.12   261.47   305.93
          (Kelvin)            400.32   417.48   445.02   448.75   536.70
                              626.36   630.96   657.71   740.91   806.98
                              901.86   967.43  1008.61  1085.23  1104.84
                             1151.44  1222.34  1245.72  1247.59  1467.32
                             1471.88  1500.04  1537.84  1599.78  1630.05
                             1633.62  1767.21  1819.57  1906.64  1923.96
                             1982.40  2040.15  2053.84  2102.63  2132.62
                             2149.69  2158.12  2171.46  2239.45  2345.21
                             2347.08  2390.32  2413.68  4353.47  4353.59
                             4418.94  4423.56  4486.23  4487.65  4545.06
                             4549.11  5051.64  5058.03  5203.12  5207.04

 Zero-point correction=                           0.189544 (Hartree/Particle)
 Thermal correction to Energy=                    0.199901
 Thermal correction to Enthalpy=                  0.200845
 Thermal correction to Gibbs Free Energy=         0.154891
 Sum of electronic and zero-point Energies=           -421.432766
 Sum of electronic and thermal Energies=              -421.422409
 Sum of electronic and thermal Enthalpies=            -421.421465
 Sum of electronic and thermal Free Energies=         -421.467418

                     E (Thermal)             CV                S
                      KCal/Mol        Cal/Mol-Kelvin    Cal/Mol-Kelvin
 Total                  125.440             40.227             96.718
 Electronic               0.000              0.000              0.000
 Translational            0.889              2.981             40.637
 Rotational               0.889              2.981             29.619
 Vibrational            123.662             34.265             26.462
 Vibration     1          0.609              1.931              3.077
 Vibration     2          0.612              1.921              2.916
 Vibration     3          0.616              1.910              2.760
 Vibration     4          0.630              1.865              2.311
 Vibration     5          0.644              1.822              2.021
 Vibration     6          0.679              1.714              1.544
 Vibration     7          0.686              1.692              1.473
 Vibration     8          0.699              1.656              1.366
 Vibration     9          0.700              1.651              1.352
 Vibration    10          0.744              1.528              1.067
 Vibration    11          0.796              1.393              0.841
 Vibration    12          0.799              1.386              0.831
 Vibration    13          0.815              1.345              0.774
 Vibration    14          0.870              1.217              0.622
 Vibration    15          0.917              1.116              0.522

 Optimization completed.
    -- Stationary point found.
 Normal termination of Gaussian 16 at Thu Jul 11 19:36:53 2024.
 Gaussian 16:  EM64L-G16RevA.03 25-Dec-2016

 ----------------------------------------------------------------------
 # TD(NStates=10, Root=1) B3LYP/6-31G** SCRF=(Solvent=water) volume pop
 =NPA density=current Geom=AllCheck Guess=Read
 ----------------------------------------------------------------------

 Structure from the checkpoint file:  "XSZYBMMYQCYIPC-UHFFFAOYSA-N_conf_0_2.chk"
 ----------------------------------
 XSZYBMMYQCYIPC-UHFFFAOYSA-N_conf_0
 ----------------------------------
 Charge =  0 Multiplicity = 1

                         Standard orientation:
 ---------------------------------------------------------------------
 Center     Atomic      Atomic             Coordinates (Angstroms)
 Number     Number       Type             X           Y           Z
 ---------------------------------------------------------------------
      1          7           0       -2.489557    1.380895   -0.045744
      2          6           0       -1.251376    0.705899    0.001109
      3          6           0       -0.026493    1.379111   -0.011041
      4          6           0        1.201211    0.704284   -0.011281
      5          6           0        2.494876    1.485451   -0.022873
      6          6           0        1.201211   -0.704284    0.011281
      7          6           0        2.494876   -1.485451    0.022873
      8          6           0       -0.026493   -1.379111    0.011041
      9          6           0       -1.251376   -0.705899   -0.001109
     10          7           0       -2.489557   -1.380895    0.045744
     11          1           0       -3.173570    0.970999    0.584533
     12          1           0       -2.402578    2.370742    0.156390
     13          1           0       -0.032879    2.467588   -0.012478
     14          1           0        2.305287    2.562277   -0.029426
     15          1           0        3.105935    1.250347   -0.903415
     16          1           0        3.115392    1.262085    0.853983
     17          1           0        3.105935   -1.250347    0.903415
     18          1           0        3.115392   -1.262085   -0.853983
     19          1           0        2.305287   -2.562277    0.029426
     20          1           0       -0.032879   -2.467588    0.012478
     21          1           0       -2.402578   -2.370742   -0.156390
     22          1           0       -3.173570   -0.970999   -0.584533
 ---------------------------------------------------------------------

 SCF Done:  E(RB3LYP) =  -421.622309707     A.U. after    1 cycles

 Excitation energies and oscillator strengths:

 Excited State   1:      Singlet-A      4.6924 eV  264.23 nm  f=0.1448  <S**2>=0.000
      36 -> 39        -0.25599
      37 -> 38         0.65775
 This state for optimization and/or second-order correction.
 Total Energy, E(TD-HF/TD-DFT) =  -421.449868451
 Copying the excited state density for this state as the 1-particle RhoCI density.

 Excited State   2:      Singlet-A      5.2420 eV  236.52 nm  f=0.2428  <S**2>=0.000
      36 -> 38         0.16553
      37 -> 39         0.68470

 Excited State   3:      Singlet-A      6.0563 eV  204.72 nm  f=0.2710  <S**2>=0.000
      36 -> 38         0.66972
      37 -> 39        -0.15633
      37 -> 40         0.11808

 Excited State   4:      Singlet-A      6.0703 eV  204.25 nm  f=1.0456  <S**2>=0.000
      35 -> 38         0.11369
      36 -> 39         0.64653
      37 -> 38         0.24964

 Excited State   5:      Singlet-A      6.2517 eV  198.32 nm  f=0.0105  <S**2>=0.000
      36 -> 38        -0.11040
      37 -> 40         0.69260

 Excited State   6:      Singlet-A      6.9873 eV  177.44 nm  f=0.0041  <S**2>=0.000
      37 -> 41         0.69806

 Excited State   7:      Singlet-A      7.1116 eV  174.34 nm  f=0.0048  <S**2>=0.000
      36 -> 40         0.30181
      37 -> 42         0.62801

 Excited State   8:      Singlet-A      7.3329 eV  169.08 nm  f=0.0086  <S**2>=0.000
      35 -> 38         0.28388
      36 -> 40         0.56110
      37 -> 42        -0.30041

 Excited State   9:      Singlet-A      7.3361 eV  169.01 nm  f=0.0072  <S**2>=0.000
      37 -> 43         0.69257

 Excited State  10:      Singlet-A      7.4388 eV  166.67 nm  f=0.1501  <S**2>=0.000
      34 -> 39         0.14935
      35 -> 38         0.60610
      36 -> 40        -0.28542

 The electronic state is 1-A.
 Alpha  occ. eigenvalues --  -14.33195 -14.33195 -10.21303 -10.21255 -10.18121
 Alpha  occ. eigenvalues --  -10.18071 -10.17549 -10.17548 -10.17448 -10.17448
 Alpha  occ. eigenvalues --   -0.92511  -0.88156  -0.83190  -0.74649  -0.74433
 Alpha  occ. eigenvalues --   -0.68176  -0.65487  -0.60044  -0.56102  -0.51716
 Alpha  occ. eigenvalues --   -0.49841  -0.47502  -0.45642  -0.43892  -0.42332
 Alpha  occ. eigenvalues --   -0.41601  -0.40739  -0.38958  -0.37762  -0.37550
 Alpha  occ. eigenvalues --   -0.36955  -0.33756  -0.33024  -0.30640  -0.28396
 Alpha  occ. eigenvalues --   -0.21829  -0.18301
 Alpha virt. eigenvalues --    0.01708   0.02455   0.08380   0.10172   0.11460
 Alpha virt. eigenvalues --    0.12170   0.14231   0.14675   0.15304   0.16300
 Alpha virt. eigenvalues --    0.16931   0.17922   0.18368   0.22736   0.24573

 Mulliken charges:
               1
     1  N   -0.649351
     2  C    0.224339
     3  C   -0.240980
     4  C    0.075357
     5  C   -0.388684
     6  C    0.075357
     7  C   -0.388684
     8  C   -0.240980
     9  C    0.224339
    10  N   -0.649351
    11  H    0.289086
    12  H    0.285623
    13  H    0.055887
    14  H    0.109803
    15  H    0.120047
    16  H    0.118873
    17  H    0.120047
    18  H    0.118873
    19  H    0.109803
    20  H    0.055887
    21  H    0.285623
    22  H    0.289086
 Sum of Mulliken charges =  -0.00000

 Dipole moment (field-independent basis, Debye):
    X=             -2.9153    Y=             -0.0000    Z=             -0.0000  Tot=              2.9153
 Quadrupole moment (field-independent basis, Debye-Ang):
   XX=            -46.0638   YY=            -52.1751   ZZ=            -63.9481
   XY=             -0.0000   XZ=             -0.0000   YZ=              3.5382

 Summary of Natural Population Analysis:

                                       Natural Population
                Natural  -----------------------------------------------
    Atom  No    Charge         Core      Valence    Rydberg      Total
 -----------------------------------------------------------------------
      N    1   -0.79652      1.99952     5.78449    0.01252     7.79652
      C    2    0.12712      1.99890     3.85504    0.01894     5.87288
      C    3   -0.39466      1.99901     4.37634    0.01930     6.39466
      C    4   -0.01724      1.99899     4.00270    0.01554     6.01724
      C    5   -0.70542      1.99940     4.69878    0.00724     6.70542
      C    6   -0.01724      1.99899     4.00270    0.01554     6.01724
      C    7   -0.70542      1.99940     4.69878    0.00724     6.70542
      C    8   -0.39466      1.99901     4.37634    0.01930     6.39466
      C    9    0.12712      1.99890     3.85504    0.01894     5.87288
      N   10   -0.79652      1.99952     5.78449    0.01252     7.79652
      H   11    0.41589      0.00000     0.58060    0.00351     0.58411
      H   12    0.41728      0.00000     0.57954    0.00318     0.58272
      H   13    0.22311      0.00000     0.77507    0.00181     0.77689
      H   14    0.24230      0.00000     0.75637    0.00133     0.75770
      H   15    0.24465      0.00000     0.75372    0.00163     0.75535
      H   16    0.24348      0.00000     0.75488    0.00165     0.75652
      H   17    0.24465      0.00000     0.75372    0.00163     0.75535
      H   18    0.24348      0.00000     0.75488    0.00165     0.75652
      H   19    0.24230      0.00000     0.75637    0.00133     0.75770
      H   20    0.22311      0.00000     0.77507    0.00181     0.77689
      H   21    0.41728      0.00000     0.57954    0.00318     0.58272
      H   22    0.41589      0.00000     0.58060    0.00351     0.58411
 =======================================================================
   * Total *    0.00000     19.99167    53.83505    0.17328    74.00000

 1\1\GINC-CN11\SP\RB3LYP TD-FC\6-31G(d,p)\C8H12N2\QDUEZ\11-Jul-2024\0\\
 # TD(NStates=10, Root=1) B3LYP/6-31G** SCRF=(Solvent=water) volume pop
 =NPA density=current Geom=AllCheck Guess=Read\\XSZYBMMYQCYIPC-UHFFFAOY
 SA-N_conf_0\\0,1\N,0,2.7980681836,1.1829372958,-0.4833484304\C,0,1.534
 512642,0.5914471121,-0.2724617853\C,0,0.3370770539,1.2873832757,-0.460
 9281006\C,0,-0.91427049,0.711368465,-0.2060076101\C,0,-2.1763578306,1.
 5119590092,-0.4298788715\C,0,-0.9680329648,-0.6212340664,0.2476997574\
 C,0,-2.2896837558,-1.298101902,0.5287996261\C,0,0.2326168439,-1.314663

 Normal termination of Gaussian 16 at Thu Jul 11 19:55:46 2024.
