 Gaussian 16, Revision A.03,

 -------------------------------------------------------
 # opt=CalcFc B3LYP/6-31G** SCRF=(Solvent=water) scf=xqc
 -------------------------------------------------------

 ----------------------------------
 XSZYBMMYQCYIPC-UHFFFAOYSA-N_conf_1
 ----------------------------------
 Symbolic Z-matrix:
 Charge =  0 Multiplicity = 1

 SCF Done:  E(RB3LYP) =  -421.617625401     A.U. after   12 cycles
 SCF Done:  E(RB3LYP) =  -421.621815354     A.U. after   10 cycles
 SCF Done:  E(RB3LYP) =  -421.622280324     A.U. after   10 cycles
 SCF Done:  E(RB3LYP) =  -421.622304537     A.U. after    9 cycles
 SCF Done:  E(RB3LYP) =  -421.622309696     A.U. after    8 cycles
 Optimization completed.
    -- Stationary point found.
 Normal termination of Gaussian 16 at Thu Jul 11 19:24:38 2024.

 ----------------------------------------------------------------------
 # freq B3LYP/6-31G** SCRF=(Solvent=water) volume NMR pop=NPA density=c
 urrent Geom=AllCheck Guess=Read
 ----------------------------------------------------------------------

 Structure from the checkpoint file:  "XSZYBMMYQCYIPC-UHFFFAOYSA-N_conf_1_1.chk"
 ----------------------------------
 XSZYBMMYQCYIPC-UHFFFAOYSA-N_conf_1
 ----------------------------------
 Charge =  0 Multiplicity = 1

 SCF Done:  E(RB3LYP) =  -421.622309696     A.U. after    1 cycles

      1  N    Isotropic =   208.9191   Anisotropy =    40.8662

      2  C    Isotropic =    63.6234   Anisotropy =   136.5506

      3  C    Isotropic =    79.0813   Anisotropy =   104.9814

      4  C    Isotropic =    68.3606   Anisotropy =   157.2100

      5  C    Isotropic =   171.3852   Anisotropy =    27.7163

      6  C    Isotropic =    68.3606   Anisotropy =   157.2100

      7  C    Isotropic =   171.3852   Anisotropy =    27.7163

      8  C    Isotropic =    79.0813   Anisotropy =   104.9814

      9  C    Isotropic =    63.6234   Anisotropy =   136.5506

     10  N    Isotropic =   208.9191   Anisotropy =    40.8662

     11  H    Isotropic =    29.0276   Anisotropy =    12.7612

     12  H    Isotropic =    29.2860   Anisotropy =    11.0157

     13  H    Isotropic =    25.3029   Anisotropy =     7.5085

     14  H    Isotropic =    30.0051   Anisotropy =     7.9245

     15  H    Isotropic =    29.6537   Anisotropy =     8.3454

     16  H    Isotropic =    29.6261   Anisotropy =     8.2060

     17  H    Isotropic =    29.6261   Anisotropy =     8.2060

     18  H    Isotropic =    30.0051   Anisotropy =     7.9245

     19  H    Isotropic =    29.6537   Anisotropy =     8.3454

     20  H    Isotropic =    25.3029   Anisotropy =     7.5085

     21  H    Isotropic =    29.0276   Anisotropy =    12.7612

     22  H    Isotropic =    29.2860   Anisotropy =    11.0157

  Exact polarizability: 181.451   0.000 149.208   0.000   0.227  60.799
 Approx polarizability: 207.447   0.000 175.652   0.000   1.825  73.060

                      1                      2                      3
                      A                      A                      A
 Frequencies --    121.4795               132.0996               143.2819
 Red. masses --      3.0717                 1.0537                 1.2345
 Frc consts  --      0.0267                 0.0108                 0.0149
 IR Inten    --      0.0845                 0.0147                 2.8864

                      4                      5                      6
                      A                      A                      A
 Frequencies --    181.7516               212.8213               278.2384
 Red. masses --      2.0364                 1.0682                 3.2876
 Frc consts  --      0.0396                 0.0285                 0.1500
 IR Inten    --     12.6802                41.2916                 1.4320

                      7                      8                      9
                      A                      A                      A
 Frequencies --    290.1513               309.3127               311.8761
 Red. masses --      2.7329                 3.0112                 3.2360
 Frc consts  --      0.1356                 0.1697                 0.1855
 IR Inten    --      0.0332                 0.3054                 0.8378

                     10                     11                     12
                      A                      A                      A
 Frequencies --    373.0446               435.3889               438.5423
 Red. masses --      3.7807                 1.0479                 4.7963
 Frc consts  --      0.3100                 0.1170                 0.5435
 IR Inten    --      2.9007                24.5402                 0.1409

                     13                     14                     15
                      A                      A                      A
 Frequencies --    457.1494               514.9570               560.8805
 Red. masses --      2.9265                 5.4528                 2.7722
 Frc consts  --      0.3603                 0.8520                 0.5138
 IR Inten    --     16.2569                 3.2241                 2.8970

                     16                     17                     18
                      A                      A                      A
 Frequencies --    626.8301               672.3695               701.0194
 Red. masses --      3.4917                 3.7494                 3.1485
 Frc consts  --      0.8083                 0.9987                 0.9116
 IR Inten    --     46.3552                88.9821                86.5474

                     19                     20                     21
                      A                      A                      A
 Frequencies --    754.2628               767.7856               800.2207
 Red. masses --      5.8354                 1.4577                 1.6640
 Frc consts  --      1.9560                 0.5063                 0.6278
 IR Inten    --     10.8751               230.2440               542.3163

                     22                     23                     24
                      A                      A                      A
 Frequencies --    849.5630               865.8173               867.1185
 Red. masses --      2.5031                 1.3685                 1.3716
 Frc consts  --      1.0644                 0.6044                 0.6076
 IR Inten    --      2.4213                20.9560                65.2780

                     25                     26                     27
                      A                      A                      A
 Frequencies --   1019.8475              1023.0053              1042.5856
 Red. masses --      1.3829                 1.5609                 1.4067
 Frc consts  --      0.8475                 0.9624                 0.9009
 IR Inten    --     30.8986                 1.4075                 8.6523

                     28                     29                     30
                      A                      A                      A
 Frequencies --   1068.8577              1111.8756              1132.9064
 Red. masses --      1.5454                 3.7322                 1.3519
 Frc consts  --      1.0403                 2.7185                 1.0223
 IR Inten    --      0.0205                 7.4180                 7.5260

                     31                     32                     33
                      A                      A                      A
 Frequencies --   1135.4174              1228.2734              1264.6690
 Red. masses --      1.5834                 1.5681                 2.4784
 Frc consts  --      1.2027                 1.3939                 2.3354
 IR Inten    --      0.8054                20.2277                36.9916

                     34                     35                     36
                      A                      A                      A
 Frequencies --   1325.1815              1337.1933              1377.8119
 Red. masses --      1.5205                 5.8510                 4.4512
 Frc consts  --      1.5732                 6.1641                 4.9786
 IR Inten    --      5.2576               129.3373                 7.9745

                     37                     38                     39
                      A                      A                      A
 Frequencies --   1417.9825              1427.4946              1461.3822
 Red. masses --      1.2639                 1.2417                 2.2643
 Frc consts  --      1.4973                 1.4907                 2.8492
 IR Inten    --      0.5703                 2.1788                 0.7286

                     40                     41                     42
                      A                      A                      A
 Frequencies --   1482.2480              1494.1160              1499.9684
 Red. masses --      1.0445                 1.0437                 1.0914
 Frc consts  --      1.3521                 1.3728                 1.4467
 IR Inten    --      0.0060                14.1293                 0.7443

                     43                     44                     45
                      A                      A                      A
 Frequencies --   1509.2313              1556.4800              1629.9919
 Red. masses --      1.3513                 3.3873                 1.2802
 Frc consts  --      1.8135                 4.8349                 2.0040
 IR Inten    --     31.2533               174.2300                66.0638

                     46                     47                     48
                      A                      A                      A
 Frequencies --   1631.2921              1661.3885              1677.5457
 Red. masses --      6.4271                 1.1118                 4.0089
 Frc consts  --     10.0770                 1.8081                 6.6470
 IR Inten    --     58.8691                40.6325                61.1800

                     49                     50                     51
                      A                      A                      A
 Frequencies --   3025.7933              3025.8777              3071.3003
 Red. masses --      1.0384                 1.0391                 1.1005
 Frc consts  --      5.6014                 5.6054                 6.1161
 IR Inten    --    124.2026                17.2926                77.3327

                     52                     53                     54
                      A                      A                      A
 Frequencies --   3074.5113              3118.0541              3119.0367
 Red. masses --      1.1004                 1.1001                 1.0996
 Frc consts  --      6.1285                 6.3013                 6.3028
 IR Inten    --      0.0251                62.6632                 6.9962

                     55                     56                     57
                      A                      A                      A
 Frequencies --   3158.9575              3161.7679              3511.0290
 Red. masses --      1.0896                 1.0900                 1.0512
 Frc consts  --      6.4061                 6.4200                 7.6346
 IR Inten    --     77.3856                 1.5617                 9.4908

                     58                     59                     60
                      A                      A                      A
 Frequencies --   3515.4922              3616.3821              3619.1027
 Red. masses --      1.0503                 1.0938                 1.0947
 Frc consts  --      7.6477                 8.4279                 8.4479
 IR Inten    --     10.4719                36.0598                 3.1441

 - Thermochemistry -
 -------------------
 Temperature   298.150 Kelvin.  Pressure   1.00000 Atm.
 Atom     1 has atomic number  7 and mass  14.00307

 Molecular mass:   136.10005 amu.
 Principal axes and moments of inertia in atomic units:
                           1         2         3
     Eigenvalues --   803.162631715.994522491.15943
           X            1.00000  -0.00000   0.00000
           Y            0.00000   0.99997  -0.00714
           Z           -0.00000   0.00714   0.99997
 This molecule is an asymmetric top.
 Rotational symmetry number  1.
 Warning -- assumption of classical behavior for rotation
           may cause significant error
 Rotational temperatures (Kelvin)      0.10784     0.05047     0.03477
 Rotational constants (GHZ):           2.24704     1.05172     0.72446
 Zero-point vibrational energy     497646.6 (Joules/Mol)
                                  118.94039 (Kcal/Mol)
 Warning -- explicit consideration of  15 degrees of freedom as
           vibrations may cause significant error
 Vibrational temperatures:    174.78   190.06   206.15   261.50   306.20
          (Kelvin)            400.32   417.46   445.03   448.72   536.73
                              626.43   630.96   657.74   740.91   806.98
                              901.87   967.39  1008.61  1085.22  1104.67
                             1151.34  1222.33  1245.72  1247.59  1467.33
                             1471.88  1500.05  1537.85  1599.74  1630.00
                             1633.61  1767.21  1819.58  1906.64  1923.92
                             1982.36  2040.16  2053.85  2102.60  2132.62
                             2149.70  2158.12  2171.45  2239.43  2345.19
                             2347.07  2390.37  2413.61  4353.44  4353.56
                             4418.92  4423.54  4486.18  4487.60  4545.04
                             4549.08  5051.59  5058.01  5203.17  5207.08

 Zero-point correction=                           0.189544 (Hartree/Particle)
 Thermal correction to Energy=                    0.199900
 Thermal correction to Enthalpy=                  0.200844
 Thermal correction to Gibbs Free Energy=         0.154892
 Sum of electronic and zero-point Energies=           -421.432766
 Sum of electronic and thermal Energies=              -421.422410
 Sum of electronic and thermal Enthalpies=            -421.421465
 Sum of electronic and thermal Free Energies=         -421.467418

                     E (Thermal)             CV                S
                      KCal/Mol        Cal/Mol-Kelvin    Cal/Mol-Kelvin
 Total                  125.439             40.227             96.716
 Electronic               0.000              0.000              0.000
 Translational            0.889              2.981             40.637
 Rotational               0.889              2.981             29.619
 Vibrational            123.662             34.265             26.460
 Vibration     1          0.609              1.931              3.077
 Vibration     2          0.612              1.921              2.915
 Vibration     3          0.616              1.910              2.760
 Vibration     4          0.630              1.865              2.310
 Vibration     5          0.644              1.821              2.019
 Vibration     6          0.679              1.714              1.544
 Vibration     7          0.686              1.692              1.473
 Vibration     8          0.699              1.656              1.366
 Vibration     9          0.700              1.651              1.352
 Vibration    10          0.744              1.527              1.067
 Vibration    11          0.796              1.393              0.841
 Vibration    12          0.799              1.386              0.831
 Vibration    13          0.815              1.345              0.774
 Vibration    14          0.870              1.217              0.622
 Vibration    15          0.917              1.116              0.522

 Optimization completed.
    -- Stationary point found.
 Normal termination of Gaussian 16 at Thu Jul 11 19:47:48 2024.
 Gaussian 16:  EM64L-G16RevA.03 25-Dec-2016

 ----------------------------------------------------------------------
 # TD(NStates=10, Root=1) B3LYP/6-31G** SCRF=(Solvent=water) volume pop
 =NPA density=current Geom=AllCheck Guess=Read
 ----------------------------------------------------------------------

 Structure from the checkpoint file:  "XSZYBMMYQCYIPC-UHFFFAOYSA-N_conf_1_2.chk"
 ----------------------------------
 XSZYBMMYQCYIPC-UHFFFAOYSA-N_conf_1
 ----------------------------------
 Charge =  0 Multiplicity = 1

                         Standard orientation:
 ---------------------------------------------------------------------
 Center     Atomic      Atomic             Coordinates (Angstroms)
 Number     Number       Type             X           Y           Z
 ---------------------------------------------------------------------
      1          7           0       -2.489546   -1.380919   -0.046078
      2          6           0       -1.251389   -0.705901    0.000934
      3          6           0       -0.026480   -1.379106   -0.011026
      4          6           0        1.201237   -0.704285   -0.011219
      5          6           0        2.494875   -1.485516   -0.022546
      6          6           0        1.201237    0.704285    0.011219
      7          6           0        2.494875    1.485516    0.022546
      8          6           0       -0.026480    1.379106    0.011026
      9          6           0       -1.251389    0.705901   -0.000934
     10          7           0       -2.489546    1.380919    0.046078
     11          1           0       -2.402598   -2.370750    0.156123
     12          1           0       -3.173754   -0.970970    0.583959
     13          1           0       -0.032881   -2.467585   -0.012484
     14          1           0        2.305237   -2.562332   -0.029869
     15          1           0        3.106470   -1.249910   -0.902585
     16          1           0        3.114882   -1.262731    0.854819
     17          1           0        3.114882    1.262731   -0.854819
     18          1           0        2.305237    2.562332    0.029869
     19          1           0        3.106470    1.249910    0.902585
     20          1           0       -0.032881    2.467585    0.012484
     21          1           0       -2.402598    2.370750   -0.156122
     22          1           0       -3.173754    0.970970   -0.583959
 ---------------------------------------------------------------------

 SCF Done:  E(RB3LYP) =  -421.622309696     A.U. after    1 cycles

 Excitation energies and oscillator strengths:

 Excited State   1:      Singlet-A      4.6923 eV  264.23 nm  f=0.1448  <S**2>=0.000
      36 -> 39        -0.25599
      37 -> 38         0.65775
 This state for optimization and/or second-order correction.
 Total Energy, E(TD-HF/TD-DFT) =  -421.449871652
 Copying the excited state density for this state as the 1-particle RhoCI density.

 Excited State   2:      Singlet-A      5.2420 eV  236.52 nm  f=0.2428  <S**2>=0.000
      36 -> 38         0.16556
      37 -> 39         0.68469

 Excited State   3:      Singlet-A      6.0561 eV  204.73 nm  f=0.2710  <S**2>=0.000
      36 -> 38         0.66967
      37 -> 39        -0.15635
      37 -> 40         0.11836

 Excited State   4:      Singlet-A      6.0703 eV  204.25 nm  f=1.0456  <S**2>=0.000
      35 -> 38         0.11366
      36 -> 39         0.64654
      37 -> 38         0.24964

 Excited State   5:      Singlet-A      6.2513 eV  198.33 nm  f=0.0106  <S**2>=0.000
      36 -> 38        -0.11066
      37 -> 40         0.69255

 Excited State   6:      Singlet-A      6.9872 eV  177.45 nm  f=0.0041  <S**2>=0.000
      37 -> 41         0.69806

 Excited State   7:      Singlet-A      7.1115 eV  174.34 nm  f=0.0048  <S**2>=0.000
      36 -> 40         0.30219
      37 -> 42         0.62782

 Excited State   8:      Singlet-A      7.3326 eV  169.09 nm  f=0.0084  <S**2>=0.000
      35 -> 38         0.28278
      36 -> 40         0.56144
      37 -> 42        -0.30091

 Excited State   9:      Singlet-A      7.3360 eV  169.01 nm  f=0.0071  <S**2>=0.000
      37 -> 43         0.69256

 Excited State  10:      Singlet-A      7.4388 eV  166.67 nm  f=0.1502  <S**2>=0.000
      34 -> 39         0.14944
      35 -> 38         0.60661
      36 -> 40        -0.28437

 The electronic state is 1-A.
 Alpha  occ. eigenvalues --  -14.33196 -14.33196 -10.21304 -10.21255 -10.18122
 Alpha  occ. eigenvalues --  -10.18072 -10.17549 -10.17548 -10.17449 -10.17448
 Alpha  occ. eigenvalues --   -0.92512  -0.88157  -0.83190  -0.74648  -0.74433
 Alpha  occ. eigenvalues --   -0.68176  -0.65487  -0.60044  -0.56102  -0.51717
 Alpha  occ. eigenvalues --   -0.49841  -0.47502  -0.45642  -0.43892  -0.42332
 Alpha  occ. eigenvalues --   -0.41601  -0.40739  -0.38959  -0.37763  -0.37551
 Alpha  occ. eigenvalues --   -0.36954  -0.33756  -0.33025  -0.30641  -0.28396
 Alpha  occ. eigenvalues --   -0.21829  -0.18301
 Alpha virt. eigenvalues --    0.01707   0.02455   0.08379   0.10172   0.11460
 Alpha virt. eigenvalues --    0.12170   0.14233   0.14674   0.15305   0.16301
 Alpha virt. eigenvalues --    0.16928   0.17923   0.18368   0.22736   0.24573

 Mulliken charges:
               1
     1  N   -0.649374
     2  C    0.224373
     3  C   -0.240989
     4  C    0.075355
     5  C   -0.388684
     6  C    0.075355
     7  C   -0.388684
     8  C   -0.240989
     9  C    0.224373
    10  N   -0.649374
    11  H    0.285627
    12  H    0.289079
    13  H    0.055889
    14  H    0.109806
    15  H    0.120032
    16  H    0.118886
    17  H    0.118886
    18  H    0.109806
    19  H    0.120032
    20  H    0.055889
    21  H    0.285627
    22  H    0.289079
 Sum of Mulliken charges =  -0.00000

 Dipole moment (field-independent basis, Debye):
    X=             -2.9161    Y=              0.0000    Z=             -0.0000  Tot=              2.9161
 Quadrupole moment (field-independent basis, Debye-Ang):
   XX=            -46.0589   YY=            -52.1751   ZZ=            -63.9513
   XY=              0.0000   XZ=              0.0000   YZ=             -3.5374

 Summary of Natural Population Analysis:

                                       Natural Population
                Natural  -----------------------------------------------
    Atom  No    Charge         Core      Valence    Rydberg      Total
 -----------------------------------------------------------------------
      N    1   -0.79652      1.99952     5.78449    0.01252     7.79652
      C    2    0.12712      1.99890     3.85504    0.01894     5.87288
      C    3   -0.39465      1.99901     4.37634    0.01930     6.39465
      C    4   -0.01724      1.99899     4.00271    0.01554     6.01724
      C    5   -0.70542      1.99940     4.69878    0.00724     6.70542
      C    6   -0.01724      1.99899     4.00271    0.01554     6.01724
      C    7   -0.70542      1.99940     4.69878    0.00724     6.70542
      C    8   -0.39465      1.99901     4.37634    0.01930     6.39465
      C    9    0.12712      1.99890     3.85504    0.01894     5.87288
      N   10   -0.79652      1.99952     5.78449    0.01252     7.79652
      H   11    0.41729      0.00000     0.57953    0.00318     0.58271
      H   12    0.41588      0.00000     0.58061    0.00351     0.58412
      H   13    0.22311      0.00000     0.77507    0.00181     0.77689
      H   14    0.24231      0.00000     0.75636    0.00133     0.75769
      H   15    0.24465      0.00000     0.75372    0.00163     0.75535
      H   16    0.24348      0.00000     0.75488    0.00165     0.75652
      H   17    0.24348      0.00000     0.75488    0.00165     0.75652
      H   18    0.24231      0.00000     0.75636    0.00133     0.75769
      H   19    0.24465      0.00000     0.75372    0.00163     0.75535
      H   20    0.22311      0.00000     0.77507    0.00181     0.77689
      H   21    0.41729      0.00000     0.57953    0.00318     0.58271
      H   22    0.41588      0.00000     0.58061    0.00351     0.58412
 =======================================================================
   * Total *   -0.00000     19.99167    53.83505    0.17328    74.00000

 1\1\GINC-CN33\SP\RB3LYP TD-FC\6-31G(d,p)\C8H12N2\QDUEZ\11-Jul-2024\0\\
 # TD(NStates=10, Root=1) B3LYP/6-31G** SCRF=(Solvent=water) volume pop
 =NPA density=current Geom=AllCheck Guess=Read\\XSZYBMMYQCYIPC-UHFFFAOY
 SA-N_conf_1\\0,1\N,0,2.9137814175,-0.9739567374,-0.152907391\C,0,1.592
 5573937,-0.4809624181,-0.1058221359\C,0,0.4753887652,-1.3209948164,-0.
 1112619564\C,0,-0.8334801299,-0.8303391778,-0.0174952315\C,0,-2.003567
 9182,-1.7867280981,-0.0303160995\C,0,-1.031316927,0.5613124304,0.07597
 44078\C,0,-2.4207615462,1.1484479383,0.1690610342\C,0,0.0889181469,1.4

 Normal termination of Gaussian 16 at Thu Jul 11 20:16:59 2024.
