 Gaussian 16, Revision A.03,

 -------------------------------------------------------
 # opt=CalcFc B3LYP/6-31G** SCRF=(Solvent=water) scf=xqc
 -------------------------------------------------------

 ----------------------------------
 DZIHTWJGPDVSGE-ROTMJFINSA-N_conf_3
 ----------------------------------
 Symbolic Z-matrix:
 Charge =  0 Multiplicity = 1

 SCF Done:  E(RB3LYP) =  -620.597884224     A.U. after   11 cycles
 SCF Done:  E(RB3LYP) =  -620.600473106     A.U. after    9 cycles
 SCF Done:  E(RB3LYP) =  -620.600553611     A.U. after    8 cycles
 SCF Done:  E(RB3LYP) =  -620.600557280     A.U. after    7 cycles
 SCF Done:  E(RB3LYP) =  -620.600558073     A.U. after    7 cycles
 SCF Done:  E(RB3LYP) =  -620.600558082     A.U. after    5 cycles
 Optimization completed.
    -- Stationary point found.
 Normal termination of Gaussian 16 at Wed Jul 17 17:38:30 2024.

 ----------------------------------------------------------------------
 # freq B3LYP/6-31G** SCRF=(Solvent=water) volume NMR pop=NPA density=c
 urrent Geom=AllCheck Guess=Read
 ----------------------------------------------------------------------

 Structure from the checkpoint file:  "DZIHTWJGPDVSGE-ROTMJFINSA-N_conf_3_1.chk"
 ----------------------------------
 DZIHTWJGPDVSGE-ROTMJFINSA-N_conf_3
 ----------------------------------
 Charge =  0 Multiplicity = 1

 SCF Done:  E(RB3LYP) =  -620.600558082     A.U. after    1 cycles

      1  N    Isotropic =   222.1269   Anisotropy =    32.3696

      2  C    Isotropic =   143.5426   Anisotropy =    25.7407

      3  C    Isotropic =   157.3807   Anisotropy =    12.9213

      4  C    Isotropic =   165.1371   Anisotropy =    21.2984

      5  C    Isotropic =   151.1288   Anisotropy =    19.7789

      6  C    Isotropic =   152.1810   Anisotropy =    20.8981

      7  C    Isotropic =   161.7006   Anisotropy =     8.9240

      8  C    Isotropic =   157.0389   Anisotropy =    20.7860

      9  C    Isotropic =   159.8049   Anisotropy =    22.3380

     10  C    Isotropic =   139.3587   Anisotropy =    29.9951

     11  N    Isotropic =   217.8906   Anisotropy =    46.6324

     12  C    Isotropic =   160.2817   Anisotropy =    25.9106

     13  C    Isotropic =   160.1394   Anisotropy =    17.3499

     14  C    Isotropic =   165.1914   Anisotropy =    17.0023

     15  C    Isotropic =   157.2066   Anisotropy =    12.6532

     16  H    Isotropic =    31.3705   Anisotropy =    14.0005

     17  H    Isotropic =    31.3750   Anisotropy =    14.0822

     18  H    Isotropic =    28.4888   Anisotropy =     9.2573

     19  H    Isotropic =    30.2355   Anisotropy =     9.2431

     20  H    Isotropic =    30.2875   Anisotropy =     8.4009

     21  H    Isotropic =    30.7981   Anisotropy =     8.4281

     22  H    Isotropic =    29.6654   Anisotropy =     4.5098

     23  H    Isotropic =    30.1614   Anisotropy =     5.8847

     24  H    Isotropic =    30.5410   Anisotropy =     5.2515

     25  H    Isotropic =    29.9239   Anisotropy =     5.3857

     26  H    Isotropic =    29.8342   Anisotropy =     7.9450

     27  H    Isotropic =    30.3862   Anisotropy =     7.8840

     28  H    Isotropic =    30.1978   Anisotropy =     8.3199

     29  H    Isotropic =    30.4244   Anisotropy =     9.1072

     30  H    Isotropic =    30.5937   Anisotropy =     4.4965

     31  H    Isotropic =    28.8673   Anisotropy =     5.6621

     32  H    Isotropic =    31.1561   Anisotropy =    14.1912

     33  H    Isotropic =    31.1481   Anisotropy =    14.3751

     34  H    Isotropic =    30.4556   Anisotropy =     4.4553

     35  H    Isotropic =    30.4104   Anisotropy =     8.7992

     36  H    Isotropic =    30.2693   Anisotropy =     8.2635

     37  H    Isotropic =    30.2997   Anisotropy =     7.8809

     38  H    Isotropic =    29.7799   Anisotropy =     5.7275

     39  H    Isotropic =    30.6721   Anisotropy =     7.7584

     40  H    Isotropic =    30.3289   Anisotropy =     8.3533

     41  H    Isotropic =    30.2278   Anisotropy =     9.0732

  Exact polarizability: 209.295  -0.938 190.063  -1.483  -0.256 180.073
 Approx polarizability: 204.373  -1.108 203.439  -1.065  -0.359 203.605

                      1                      2                      3
                      A                      A                      A
 Frequencies --     22.1517                54.6783                68.5774
 Red. masses --      3.6974                 3.7623                 2.8978
 Frc consts  --      0.0011                 0.0066                 0.0080
 IR Inten    --      0.0502                 1.5772                 1.2592

                      4                      5                      6
                      A                      A                      A
 Frequencies --     85.9288               176.1902               189.5303
 Red. masses --      3.9232                 3.7796                 2.5031
 Frc consts  --      0.0171                 0.0691                 0.0530
 IR Inten    --      0.6250                 2.0384                 0.6576

                      7                      8                      9
                      A                      A                      A
 Frequencies --    205.5411               213.6098               256.4026
 Red. masses --      2.8916                 1.9880                 2.6206
 Frc consts  --      0.0720                 0.0534                 0.1015
 IR Inten    --      2.5194                 3.4642                 1.5327

                     10                     11                     12
                      A                      A                      A
 Frequencies --    261.7680               268.0734               273.7305
 Red. masses --      1.1251                 1.1520                 1.9659
 Frc consts  --      0.0454                 0.0488                 0.0868
 IR Inten    --     65.8367                47.8021                 7.1495

                     13                     14                     15
                      A                      A                      A
 Frequencies --    335.6583               373.1089               378.4020
 Red. masses --      2.6486                 2.0465                 2.0053
 Frc consts  --      0.1758                 0.1679                 0.1692
 IR Inten    --     13.1054                 2.3055                 2.1627

                     16                     17                     18
                      A                      A                      A
 Frequencies --    386.0594               403.3990               434.9762
 Red. masses --      2.1166                 1.8616                 2.2716
 Frc consts  --      0.1859                 0.1785                 0.2532
 IR Inten    --      0.1673                 2.1058                 3.8709

                     19                     20                     21
                      A                      A                      A
 Frequencies --    442.1898               469.8989               485.1226
 Red. masses --      1.8284                 3.1347                 2.9886
 Frc consts  --      0.2106                 0.4078                 0.4144
 IR Inten    --      2.7023                 0.8754                 8.3478

                     22                     23                     24
                      A                      A                      A
 Frequencies --    489.3504               570.8818               648.1850
 Red. masses --      2.9723                 3.1662                 2.6900
 Frc consts  --      0.4194                 0.6080                 0.6659
 IR Inten    --      3.1259                 6.5057                14.0606

                     25                     26                     27
                      A                      A                      A
 Frequencies --    684.4356               785.3236               787.9332
 Red. masses --      2.6640                 2.0667                 1.7629
 Frc consts  --      0.7353                 0.7510                 0.6448
 IR Inten    --     10.1922                 8.4168                 5.3184

                     28                     29                     30
                      A                      A                      A
 Frequencies --    795.5898               803.7916               811.6591
 Red. masses --      1.5142                 2.4511                 2.3082
 Frc consts  --      0.5647                 0.9330                 0.8959
 IR Inten    --      0.7781                10.1539                19.2926

                     31                     32                     33
                      A                      A                      A
 Frequencies --    837.0844               862.3135               892.6505
 Red. masses --      2.1655                 2.3910                 2.2665
 Frc consts  --      0.8940                 1.0475                 1.0641
 IR Inten    --      4.1001                14.3208                 4.7151

                     34                     35                     36
                      A                      A                      A
 Frequencies --    907.5087               917.8126               935.9292
 Red. masses --      1.6373                 1.4597                 1.6877
 Frc consts  --      0.7945                 0.7245                 0.8710
 IR Inten    --    179.2037                55.5391                 9.1364

                     37                     38                     39
                      A                      A                      A
 Frequencies --    950.7603               953.4217               956.7561
 Red. masses --      1.4641                 1.9344                 1.4997
 Frc consts  --      0.7798                 1.0360                 0.8088
 IR Inten    --      5.6666                74.0397                 6.0573

                     40                     41                     42
                      A                      A                      A
 Frequencies --    979.8546               990.6467               999.1643
 Red. masses --      2.4683                 2.1099                 2.0877
 Frc consts  --      1.3963                 1.2200                 1.2280
 IR Inten    --      4.5434                 1.2143                 9.8880

                     43                     44                     45
                      A                      A                      A
 Frequencies --   1032.7849              1041.1398              1059.0510
 Red. masses --      1.7417                 1.9193                 1.7203
 Frc consts  --      1.0946                 1.2257                 1.1368
 IR Inten    --      0.5387                 1.6767                 0.9632

                     46                     47                     48
                      A                      A                      A
 Frequencies --   1060.5326              1074.7994              1091.1844
 Red. masses --      1.7370                 2.2932                 1.9065
 Frc consts  --      1.1511                 1.5608                 1.3375
 IR Inten    --     11.8387                 0.0753                 4.7861

                     49                     50                     51
                      A                      A                      A
 Frequencies --   1100.4706              1106.5245              1120.1245
 Red. masses --      1.3485                 2.9077                 1.0492
 Frc consts  --      0.9622                 2.0976                 0.7756
 IR Inten    --      0.1766                22.3120                 0.5359

                     52                     53                     54
                      A                      A                      A
 Frequencies --   1135.0736              1149.6889              1157.1471
 Red. masses --      2.1483                 1.3830                 1.1187
 Frc consts  --      1.6308                 1.0771                 0.8826
 IR Inten    --      5.9843                 6.2023                 1.7015

                     55                     56                     57
                      A                      A                      A
 Frequencies --   1161.9389              1202.1486              1243.9260
 Red. masses --      2.2987                 1.3639                 1.3417
 Frc consts  --      1.8285                 1.1613                 1.2232
 IR Inten    --     11.4114                 0.9790                 3.1867

                     58                     59                     60
                      A                      A                      A
 Frequencies --   1252.4072              1260.3033              1272.2958
 Red. masses --      1.2435                 1.3385                 1.2133
 Frc consts  --      1.1492                 1.2526                 1.1571
 IR Inten    --      1.5279                 9.3045                 1.5773

                     61                     62                     63
                      A                      A                      A
 Frequencies --   1280.4377              1287.6791              1297.4988
 Red. masses --      1.2331                 1.2097                 1.3405
 Frc consts  --      1.1911                 1.1818                 1.3296
 IR Inten    --      0.9739                 1.6202                 1.0305

                     64                     65                     66
                      A                      A                      A
 Frequencies --   1309.3427              1333.4630              1337.6509
 Red. masses --      1.3288                 1.2629                 1.3500
 Frc consts  --      1.3422                 1.3231                 1.4232
 IR Inten    --      1.5081                 6.6486                 0.5700

                     67                     68                     69
                      A                      A                      A
 Frequencies --   1346.6281              1353.1797              1360.9044
 Red. masses --      1.3643                 1.3058                 1.4136
 Frc consts  --      1.4576                 1.4088                 1.5425
 IR Inten    --      0.2299                 0.1559                 0.7160

                     70                     71                     72
                      A                      A                      A
 Frequencies --   1375.9798              1379.8231              1382.3268
 Red. masses --      1.4696                 1.4317                 1.5046
 Frc consts  --      1.6393                 1.6061                 1.6939
 IR Inten    --      0.5346                 1.1478                13.5874

                     73                     74                     75
                      A                      A                      A
 Frequencies --   1387.0270              1397.5508              1399.7689
 Red. masses --      1.5301                 1.3941                 1.4821
 Frc consts  --      1.7343                 1.6043                 1.7110
 IR Inten    --     10.1547                 5.4403                 0.6383

                     76                     77                     78
                      A                      A                      A
 Frequencies --   1412.5371              1417.1225              1418.6123
 Red. masses --      1.3903                 1.6000                 1.5588
 Frc consts  --      1.6344                 1.8932                 1.8483
 IR Inten    --     17.8235                 4.2556                22.2880

                     79                     80                     81
                      A                      A                      A
 Frequencies --   1422.6557              1424.6455              1484.8399
 Red. masses --      1.4691                 1.5997                 1.0893
 Frc consts  --      1.7519                 1.9129                 1.4150
 IR Inten    --      3.3987                 2.2756                 0.1862

                     82                     83                     84
                      A                      A                      A
 Frequencies --   1487.8564              1491.2601              1493.1670
 Red. masses --      1.0849                 1.0927                 1.0950
 Frc consts  --      1.4150                 1.4317                 1.4384
 IR Inten    --      3.3199                 9.4243                 5.8597

                     85                     86                     87
                      A                      A                      A
 Frequencies --   1494.9957              1497.3072              1502.0148
 Red. masses --      1.0890                 1.0961                 1.0895
 Frc consts  --      1.4340                 1.4478                 1.4482
 IR Inten    --      3.4030                 4.9401                 2.6423

                     88                     89                     90
                      A                      A                      A
 Frequencies --   1504.7143              1511.5629              1652.9743
 Red. masses --      1.1016                 1.1022                 1.0906
 Frc consts  --      1.4695                 1.4837                 1.7556
 IR Inten    --      2.6941                 0.1983                48.5729

                     91                     92                     93
                      A                      A                      A
 Frequencies --   1652.9777              2921.7963              2941.7242
 Red. masses --      1.0904                 1.0813                 1.0828
 Frc consts  --      1.7554                 5.4386                 5.5210
 IR Inten    --     35.0272               111.1918               141.4488

                     94                     95                     96
                      A                      A                      A
 Frequencies --   2975.9556              3014.8064              3017.5573
 Red. masses --      1.0819                 1.0646                 1.0640
 Frc consts  --      5.6456                 5.7010                 5.7083
 IR Inten    --     56.7161                65.6242                50.3399

                     97                     98                     99
                      A                      A                      A
 Frequencies --   3018.1430              3021.1554              3021.6766
 Red. masses --      1.0623                 1.0640                 1.0605
 Frc consts  --      5.7013                 5.7220                 5.7052
 IR Inten    --     19.6653                15.3946                81.0100

                    100                    101                    102
                      A                      A                      A
 Frequencies --   3022.7084              3026.8897              3030.4847
 Red. masses --      1.0624                 1.0639                 1.0627
 Frc consts  --      5.7194                 5.7433                 5.7502
 IR Inten    --    150.1824                70.8213               132.8607

                    103                    104                    105
                      A                      A                      A
 Frequencies --   3036.5559              3041.8842              3054.8475
 Red. masses --      1.0644                 1.0814                 1.1023
 Frc consts  --      5.7827                 5.8957                 6.0606
 IR Inten    --     38.1928                37.5603                12.3427

                    106                    107                    108
                      A                      A                      A
 Frequencies --   3055.5771              3057.3819              3059.4118
 Red. masses --      1.1018                 1.1028                 1.1003
 Frc consts  --      6.0612                 6.0738                 6.0680
 IR Inten    --    103.6918                42.7996               116.9671

                    109                    110                    111
                      A                      A                      A
 Frequencies --   3064.3135              3066.8003              3078.2525
 Red. masses --      1.0996                 1.1026                 1.0981
 Frc consts  --      6.0836                 6.1100                 6.1304
 IR Inten    --     32.5963               153.0306               105.6187

                    112                    113                    114
                      A                      A                      A
 Frequencies --   3080.8280              3084.4992              3466.8896
 Red. masses --      1.0993                 1.0986                 1.0507
 Frc consts  --      6.1477                 6.1584                 7.4407
 IR Inten    --     45.4818               134.6014                 4.4098

                    115                    116                    117
                      A                      A                      A
 Frequencies --   3472.7466              3544.2030              3551.8684
 Red. masses --      1.0505                 1.0913                 1.0918
 Frc consts  --      7.4647                 8.0770                 8.1155
 IR Inten    --      2.5601                 0.4255                 0.2646

 - Thermochemistry -
 -------------------
 Temperature   298.150 Kelvin.  Pressure   1.00000 Atm.
 Atom     1 has atomic number  7 and mass  14.00307

 Molecular mass:   210.20960 amu.
 Principal axes and moments of inertia in atomic units:
                           1         2         3
     Eigenvalues --  1201.606397336.353387655.61685
           X            1.00000   0.00019   0.00214
           Y           -0.00019   1.00000  -0.00038
           Z           -0.00214   0.00038   1.00000
 This molecule is an asymmetric top.
 Rotational symmetry number  1.
 Warning -- assumption of classical behavior for rotation
           may cause significant error
 Rotational temperatures (Kelvin)      0.07208     0.01181     0.01131
 Rotational constants (GHZ):           1.50194     0.24600     0.23574
 Zero-point vibrational energy    1009020.5 (Joules/Mol)
                                  241.16168 (Kcal/Mol)
 Warning -- explicit consideration of  23 degrees of freedom as
           vibrations may cause significant error
 Vibrational temperatures:     31.87    78.67    98.67   123.63   253.50
          (Kelvin)            272.69   295.73   307.34   368.91   376.63
                              385.70   393.84   482.94   536.82   544.44
                              555.45   580.40   625.83   636.21   676.08
                              697.98   704.07   821.37   932.59   984.75
                             1129.91  1133.66  1144.68  1156.48  1167.80
                             1204.38  1240.68  1284.32  1305.70  1320.53
                             1346.59  1367.93  1371.76  1376.56  1409.79
                             1425.32  1437.57  1485.95  1497.97  1523.74
                             1525.87  1546.40  1569.97  1583.33  1592.04
                             1611.61  1633.12  1654.15  1664.88  1671.77
                             1729.62  1789.73  1801.93  1813.30  1830.55
                             1842.26  1852.68  1866.81  1883.85  1918.56
                             1924.58  1937.50  1946.92  1958.04  1979.73
                             1985.26  1988.86  1995.62  2010.76  2013.96
                             2032.33  2038.92  2041.07  2046.88  2049.75
                             2136.35  2140.69  2145.59  2148.33  2150.97
                             2154.29  2161.06  2164.95  2174.80  2378.26
                             2378.27  4203.81  4232.49  4281.74  4337.63
                             4341.59  4342.43  4346.77  4347.52  4349.00
                             4355.02  4360.19  4368.93  4376.59  4395.24
                             4396.29  4398.89  4401.81  4408.86  4412.44
                             4428.92  4432.62  4437.91  4988.08  4996.51
                             5099.32  5110.35

 Zero-point correction=                           0.384316 (Hartree/Particle)
 Thermal correction to Energy=                    0.399529
 Thermal correction to Enthalpy=                  0.400473
 Thermal correction to Gibbs Free Energy=         0.341972
 Sum of electronic and zero-point Energies=           -620.216242
 Sum of electronic and thermal Energies=              -620.201030
 Sum of electronic and thermal Enthalpies=            -620.200085
 Sum of electronic and thermal Free Energies=         -620.258586

                     E (Thermal)             CV                S
                      KCal/Mol        Cal/Mol-Kelvin    Cal/Mol-Kelvin
 Total                  250.708             61.863            123.125
 Electronic               0.000              0.000              0.000
 Translational            0.889              2.981             41.933
 Rotational               0.889              2.981             32.579
 Vibrational            248.930             55.901             48.614
 Vibration     1          0.593              1.985              6.431
 Vibration     2          0.596              1.976              4.641
 Vibration     3          0.598              1.969              4.194
 Vibration     4          0.601              1.959              3.751
 Vibration     5          0.628              1.872              2.368
 Vibration     6          0.633              1.854              2.232
 Vibration     7          0.640              1.832              2.083
 Vibration     8          0.644              1.820              2.013
 Vibration     9          0.666              1.752              1.686
 Vibration    10          0.669              1.743              1.650
 Vibration    11          0.673              1.732              1.609
 Vibration    12          0.676              1.722              1.573
 Vibration    13          0.717              1.604              1.233
 Vibration    14          0.745              1.527              1.067
 Vibration    15          0.749              1.516              1.046
 Vibration    16          0.755              1.500              1.015
 Vibration    17          0.769              1.463              0.950
 Vibration    18          0.796              1.394              0.843
 Vibration    19          0.802              1.378              0.820
 Vibration    20          0.827              1.317              0.738
 Vibration    21          0.841              1.283              0.696
 Vibration    22          0.845              1.274              0.685
 Vibration    23          0.927              1.094              0.503

 Optimization completed.
    -- Stationary point found.
 Normal termination of Gaussian 16 at Wed Jul 17 18:15:47 2024.
 Gaussian 16:  ES64L-G16RevA.03 25-Dec-2016

 ----------------------------------------------------------------------
 # TD(NStates=10, Root=1) B3LYP/6-31G** SCRF=(Solvent=water) volume pop
 =NPA density=current Geom=AllCheck Guess=Read
 ----------------------------------------------------------------------

 Structure from the checkpoint file:  "DZIHTWJGPDVSGE-ROTMJFINSA-N_conf_3_2.chk"
 ----------------------------------
 DZIHTWJGPDVSGE-ROTMJFINSA-N_conf_3
 ----------------------------------
 Charge =  0 Multiplicity = 1

                         Standard orientation:
 ---------------------------------------------------------------------
 Center     Atomic      Atomic             Coordinates (Angstroms)
 Number     Number       Type             X           Y           Z
 ---------------------------------------------------------------------
      1          7           0       -3.927858   -0.273911    1.532919
      2          6           0       -4.071583   -0.178635    0.067467
      3          6           0       -3.554126    1.186928   -0.417778
      4          6           0       -2.033555    1.340619   -0.259374
      5          6           0       -1.266618    0.201424   -0.958828
      6          6           0        0.267747    0.375271   -0.887302
      7          6           0        0.911837    0.255438    0.522702
      8          6           0        1.941472    1.374364    0.798290
      9          6           0        3.237974    1.198066   -0.006071
     10          6           0        3.888708   -0.162728    0.273901
     11          7           0        5.088001   -0.327588   -0.565351
     12          6           0        2.893105   -1.293450   -0.015480
     13          6           0        1.580704   -1.118629    0.765860
     14          6           0       -1.762154   -1.164326   -0.447264
     15          6           0       -3.283049   -1.314988   -0.607314
     16          1           0       -4.327425   -1.157234    1.846558
     17          1           0       -4.498149    0.449962    1.967716
     18          1           0       -5.126514   -0.269324   -0.245437
     19          1           0       -4.076790    1.990693    0.117750
     20          1           0       -3.823403    1.296151   -1.477018
     21          1           0       -1.715986    2.307394   -0.671336
     22          1           0       -1.785740    1.354622    0.808194
     23          1           0       -1.527944    0.255391   -2.028513
     24          1           0        0.504386    1.360229   -1.312183
     25          1           0        0.725035   -0.354094   -1.567938
     26          1           0        0.115629    0.366067    1.269324
     27          1           0        1.495061    2.352986    0.583968
     28          1           0        2.188040    1.373523    1.869465
     29          1           0        3.942981    2.004573    0.235625
     30          1           0        3.034737    1.271487   -1.082905
     31          1           0        4.129293   -0.198648    1.353425
     32          1           0        5.539326   -1.209672   -0.325002
     33          1           0        5.765273    0.392741   -0.316529
     34          1           0        2.700345   -1.310122   -1.096281
     35          1           0        3.346958   -2.261958    0.233366
     36          1           0        1.793071   -1.219797    1.839395
     37          1           0        0.887736   -1.928113    0.511203
     38          1           0       -1.502514   -1.277666    0.611338
     39          1           0       -1.253591   -1.972822   -0.988334
     40          1           0       -3.539104   -1.319890   -1.675410
     41          1           0       -3.614483   -2.282115   -0.206271
 ---------------------------------------------------------------------

 SCF Done:  E(RB3LYP) =  -620.600558082     A.U. after    1 cycles

 Excitation energies and oscillator strengths:

 Excited State   1:      Singlet-A      7.1834 eV  172.60 nm  f=0.0150  <S**2>=0.000
      59 -> 60         0.65617
      59 -> 61        -0.12550
      59 -> 62        -0.19622
 This state for optimization and/or second-order correction.
 Total Energy, E(TD-HF/TD-DFT) =  -620.336572463
 Copying the excited state density for this state as the 1-particle RhoCI density.

 Excited State   2:      Singlet-A      7.4550 eV  166.31 nm  f=0.0222  <S**2>=0.000
      58 -> 60         0.10451
      58 -> 61         0.60791
      58 -> 62        -0.20684
      58 -> 63         0.26625

 Excited State   3:      Singlet-A      7.9744 eV  155.48 nm  f=0.0032  <S**2>=0.000
      58 -> 60         0.62179
      58 -> 62         0.29830
      58 -> 63        -0.11341

 Excited State   4:      Singlet-A      8.0069 eV  154.85 nm  f=0.0002  <S**2>=0.000
      59 -> 60         0.13242
      59 -> 61         0.63410
      59 -> 62         0.10976
      59 -> 63        -0.22966

 Excited State   5:      Singlet-A      8.1481 eV  152.16 nm  f=0.0321  <S**2>=0.000
      59 -> 60         0.21806
      59 -> 62         0.54518
      59 -> 63         0.33531
      59 -> 64        -0.11042
      59 -> 65         0.13096

 Excited State   6:      Singlet-A      8.2482 eV  150.32 nm  f=0.0132  <S**2>=0.000
      58 -> 60         0.26366
      58 -> 61        -0.35075
      58 -> 62        -0.29427
      58 -> 63         0.43381
      58 -> 65        -0.10799
      58 -> 66        -0.11105

 Excited State   7:      Singlet-A      8.4122 eV  147.39 nm  f=0.0372  <S**2>=0.000
      58 -> 60        -0.17311
      58 -> 62         0.50152
      58 -> 63         0.41545
      58 -> 64         0.14058
      58 -> 65        -0.13820

 Excited State   8:      Singlet-A      8.4705 eV  146.37 nm  f=0.0045  <S**2>=0.000
      59 -> 61         0.27747
      59 -> 62        -0.34890
      59 -> 63         0.51611
      59 -> 65         0.11611

 Excited State   9:      Singlet-A      8.7597 eV  141.54 nm  f=0.0149  <S**2>=0.000
      59 -> 64         0.50320
      59 -> 65         0.14607
      59 -> 67        -0.15107
      59 -> 68         0.31542
      59 -> 69         0.20991
      59 -> 70        -0.15949

 Excited State  10:      Singlet-A      8.8068 eV  140.78 nm  f=0.0011  <S**2>=0.000
      55 -> 60        -0.29335
      56 -> 60         0.57422
      57 -> 60         0.23206

 The electronic state is 1-A.
 Alpha  occ. eigenvalues --  -14.30628 -14.30550 -10.20323 -10.20231 -10.17691
 Alpha  occ. eigenvalues --  -10.17623 -10.17231 -10.17208 -10.17190 -10.17185
 Alpha  occ. eigenvalues --  -10.17096 -10.17090 -10.16858 -10.16790 -10.16780
 Alpha  occ. eigenvalues --   -0.87907  -0.87863  -0.82093  -0.79925  -0.74320
 Alpha  occ. eigenvalues --   -0.73323  -0.73067  -0.70663  -0.65283  -0.60744
 Alpha  occ. eigenvalues --   -0.60039  -0.58552  -0.56706  -0.53777  -0.51448
 Alpha  occ. eigenvalues --   -0.47512  -0.47195  -0.46479  -0.46346  -0.45583
 Alpha  occ. eigenvalues --   -0.44262  -0.44229  -0.42508  -0.41488  -0.41246
 Alpha  occ. eigenvalues --   -0.38698  -0.37938  -0.36948  -0.36690  -0.36498
 Alpha  occ. eigenvalues --   -0.35293  -0.34981  -0.34145  -0.33837  -0.33277
 Alpha  occ. eigenvalues --   -0.31972  -0.31889  -0.30426  -0.29001  -0.28641
 Alpha  occ. eigenvalues --   -0.28341  -0.28259  -0.23537  -0.23122
 Alpha virt. eigenvalues --    0.07445   0.08291   0.09532   0.10009   0.11943
 Alpha virt. eigenvalues --    0.12432   0.13235   0.13983   0.14158   0.14787
 Alpha virt. eigenvalues --    0.15133   0.15774   0.16320   0.16507   0.16644

 Mulliken charges:
               1
     1  N   -0.115292
     2  C    0.016182
     3  C   -0.138651
     4  C   -0.158591
     5  C   -0.043594
     6  C   -0.179636
     7  C   -0.044472
     8  C   -0.194551
     9  C   -0.172039
    10  C    0.070888
    11  N   -0.645924
    12  C   -0.174150
    13  C   -0.190568
    14  C   -0.156916
    15  C   -0.140465
    16  H    0.069096
    17  H    0.069300
    18  H    0.092288
    19  H    0.030594
    20  H    0.054191
    21  H    0.067193
    22  H    0.080964
    23  H    0.060138
    24  H    0.080718
    25  H    0.084718
    26  H    0.081068
    27  H    0.085058
    28  H    0.086072
    29  H    0.086145
    30  H    0.092607
    31  H    0.068212
    32  H    0.245432
    33  H    0.245493
    34  H    0.092465
    35  H    0.086374
    36  H    0.086052
    37  H    0.087621
    38  H    0.082931
    39  H    0.067637
    40  H    0.054628
    41  H    0.030782
 Sum of Mulliken charges =  -0.00000

 Dipole moment (field-independent basis, Debye):
    X=             -0.4141    Y=             -0.2277    Z=              2.4556  Tot=              2.5006
 Quadrupole moment (field-independent basis, Debye-Ang):
   XX=            -88.5995   YY=            -99.9484   ZZ=           -100.4804
   XY=              0.1248   XZ=              4.9847   YZ=             -0.7009

 Summary of Natural Population Analysis:

                                       Natural Population
                Natural  -----------------------------------------------
    Atom  No    Charge         Core      Valence    Rydberg      Total
 -----------------------------------------------------------------------
      N    1   -0.38194      1.99932     5.36514    0.01748     7.38194
      C    2   -0.12514      1.99915     4.10858    0.01741     6.12514
      C    3   -0.47397      1.99928     4.46106    0.01363     6.47397
      C    4   -0.46273      1.99929     4.45119    0.01226     6.46273
      C    5   -0.25222      1.99921     4.23859    0.01441     6.25222
      C    6   -0.46250      1.99928     4.44912    0.01410     6.46250
      C    7   -0.26066      1.99922     4.24749    0.01395     6.26066
      C    8   -0.45976      1.99931     4.44820    0.01225     6.45976
      C    9   -0.47688      1.99928     4.46478    0.01281     6.47688
      C   10   -0.05433      1.99920     4.03949    0.01564     6.05433
      N   11   -0.92967      1.99964     5.91486    0.01517     7.92967
      C   12   -0.47639      1.99928     4.46431    0.01280     6.47639
      C   13   -0.46212      1.99930     4.45071    0.01211     6.46212
      C   14   -0.46466      1.99929     4.45334    0.01203     6.46466
      C   15   -0.47343      1.99928     4.46048    0.01366     6.47343
      H   16    0.23274      0.00000     0.69370    0.07356     0.76726
      H   17    0.23297      0.00000     0.69350    0.07353     0.76703
      H   18    0.25347      0.00000     0.70767    0.03886     0.74653
      H   19    0.19790      0.00000     0.77675    0.02534     0.80210
      H   20    0.20533      0.00000     0.77724    0.01743     0.79467
      H   21    0.22337      0.00000     0.76783    0.00880     0.77663
      H   22    0.22086      0.00000     0.77221    0.00693     0.77914
      H   23    0.23217      0.00000     0.75770    0.01014     0.76783
      H   24    0.23105      0.00000     0.76534    0.00361     0.76895
      H   25    0.23200      0.00000     0.76494    0.00306     0.76800
      H   26    0.24131      0.00000     0.75571    0.00298     0.75869
      H   27    0.23847      0.00000     0.75885    0.00268     0.76153
      H   28    0.23285      0.00000     0.76489    0.00225     0.76715
      H   29    0.23903      0.00000     0.75913    0.00184     0.76097
      H   30    0.23134      0.00000     0.76588    0.00278     0.76866
      H   31    0.20876      0.00000     0.78801    0.00323     0.79124
      H   32    0.38629      0.00000     0.61084    0.00287     0.61371
      H   33    0.38638      0.00000     0.61076    0.00286     0.61362
      H   34    0.22975      0.00000     0.76728    0.00297     0.77025
      H   35    0.23963      0.00000     0.75851    0.00186     0.76037
      H   36    0.23329      0.00000     0.76436    0.00235     0.76671
      H   37    0.23827      0.00000     0.75867    0.00305     0.76173
      H   38    0.22199      0.00000     0.77109    0.00692     0.77801
      H   39    0.22335      0.00000     0.76772    0.00893     0.77665
      H   40    0.20556      0.00000     0.77708    0.01736     0.79444
      H   41    0.19804      0.00000     0.77660    0.02535     0.80196
 =======================================================================
   * Total *   -0.00023     29.98933    87.44962    0.56127   118.00023

 Normal termination of Gaussian 16 at Wed Jul 17 19:02:35 2024.
