 Gaussian 16, Revision A.03,

 -------------------------------------------------------
 # opt=CalcFc B3LYP/6-31G** SCRF=(Solvent=water) scf=xqc
 -------------------------------------------------------

 ----------------------------------
 DZIHTWJGPDVSGE-ROTMJFINSA-N_conf_0
 ----------------------------------
 Symbolic Z-matrix:
 Charge =  0 Multiplicity = 1

 SCF Done:  E(RB3LYP) =  -620.588374949     A.U. after   11 cycles
 SCF Done:  E(RB3LYP) =  -620.592180348     A.U. after   10 cycles
 SCF Done:  E(RB3LYP) =  -620.592277519     A.U. after   10 cycles
 SCF Done:  E(RB3LYP) =  -620.553889733     A.U. after   10 cycles
 SCF Done:  E(RB3LYP) =  -620.592326231     A.U. after    9 cycles
 SCF Done:  E(RB3LYP) =  -620.592352605     A.U. after    8 cycles
 SCF Done:  E(RB3LYP) =  -620.592353863     A.U. after    7 cycles
 SCF Done:  E(RB3LYP) =  -620.592353966     A.U. after    6 cycles
 Optimization completed on the basis of negligible forces.
    -- Stationary point found.
 Normal termination of Gaussian 16 at Wed Jul 17 17:25:12 2024.

 ----------------------------------------------------------------------
 # freq B3LYP/6-31G** SCRF=(Solvent=water) volume NMR pop=NPA density=c
 urrent Geom=AllCheck Guess=Read
 ----------------------------------------------------------------------

 Structure from the checkpoint file:  "DZIHTWJGPDVSGE-ROTMJFINSA-N_conf_0_1.chk"
 ----------------------------------
 DZIHTWJGPDVSGE-ROTMJFINSA-N_conf_0
 ----------------------------------
 Charge =  0 Multiplicity = 1

 SCF Done:  E(RB3LYP) =  -620.592353966     A.U. after    1 cycles

      1  N    Isotropic =   209.3679   Anisotropy =    49.6712

      2  C    Isotropic =   144.3496   Anisotropy =    27.1694

      3  C    Isotropic =   164.3878   Anisotropy =    11.3700

      4  C    Isotropic =   162.9629   Anisotropy =    22.6875

      5  C    Isotropic =   155.5796   Anisotropy =    17.4770

      6  C    Isotropic =   142.5098   Anisotropy =    38.5847

      7  C    Isotropic =   149.4832   Anisotropy =    16.6911

      8  C    Isotropic =   162.0695   Anisotropy =    21.4926

      9  C    Isotropic =   157.6515   Anisotropy =    13.9193

     10  C    Isotropic =   143.6497   Anisotropy =    26.0116

     11  N    Isotropic =   222.0322   Anisotropy =    32.3546

     12  C    Isotropic =   157.3572   Anisotropy =    13.0935

     13  C    Isotropic =   160.4002   Anisotropy =    28.5918

     14  C    Isotropic =   160.8935   Anisotropy =    20.9655

     15  C    Isotropic =   154.8215   Anisotropy =    26.6412

     16  H    Isotropic =    30.9802   Anisotropy =     8.1577

     17  H    Isotropic =    31.0999   Anisotropy =    13.9555

     18  H    Isotropic =    28.9287   Anisotropy =     8.7339

     19  H    Isotropic =    30.1777   Anisotropy =     8.4724

     20  H    Isotropic =    30.2777   Anisotropy =     9.7496

     21  H    Isotropic =    30.5255   Anisotropy =     7.2129

     22  H    Isotropic =    29.7607   Anisotropy =     6.2802

     23  H    Isotropic =    30.0445   Anisotropy =     3.2568

     24  H    Isotropic =    30.6427   Anisotropy =     3.1310

     25  H    Isotropic =    30.5245   Anisotropy =     5.5811

     26  H    Isotropic =    30.3247   Anisotropy =     4.4505

     27  H    Isotropic =    30.1168   Anisotropy =     4.2274

     28  H    Isotropic =    30.1021   Anisotropy =     9.6412

     29  H    Isotropic =    30.3319   Anisotropy =     7.4882

     30  H    Isotropic =    30.3076   Anisotropy =     8.7450

     31  H    Isotropic =    28.4936   Anisotropy =     8.9061

     32  H    Isotropic =    31.3849   Anisotropy =    14.2870

     33  H    Isotropic =    31.3959   Anisotropy =    13.9360

     34  H    Isotropic =    30.2854   Anisotropy =     9.2771

     35  H    Isotropic =    30.2621   Anisotropy =     7.8571

     36  H    Isotropic =    30.0136   Anisotropy =     4.6665

     37  H    Isotropic =    30.6925   Anisotropy =     7.9012

     38  H    Isotropic =    30.4070   Anisotropy =     6.7899

     39  H    Isotropic =    30.5066   Anisotropy =     7.5722

     40  H    Isotropic =    30.4821   Anisotropy =     7.2612

     41  H    Isotropic =    29.7683   Anisotropy =     8.9511

  Exact polarizability: 208.788  -0.609 185.793  -1.783   1.057 182.365
 Approx polarizability: 204.070   0.303 198.441  -2.681  -0.446 205.789

                      1                      2                      3
                      A                      A                      A
 Frequencies --      7.1600                41.5830                72.3761
 Red. masses --      3.1314                 3.4254                 3.6430
 Frc consts  --      0.0001                 0.0035                 0.0112
 IR Inten    --      0.3973                 0.5385                 0.7557

                      4                      5                      6
                      A                      A                      A
 Frequencies --     89.8518               126.0082               168.9438
 Red. masses --      3.3075                 2.7068                 2.5441
 Frc consts  --      0.0157                 0.0253                 0.0428
 IR Inten    --      1.9531                 0.2285                 0.6198

                      7                      8                      9
                      A                      A                      A
 Frequencies --    203.6991               214.4519               236.4026
 Red. masses --      2.4462                 2.0200                 2.5323
 Frc consts  --      0.0598                 0.0547                 0.0834
 IR Inten    --      2.0039                 2.6586                 6.6949

                     10                     11                     12
                      A                      A                      A
 Frequencies --    245.7832               254.0253               268.7808
 Red. masses --      2.7034                 1.1797                 1.1508
 Frc consts  --      0.0962                 0.0449                 0.0490
 IR Inten    --      1.6679                67.9896                62.1489

                     13                     14                     15
                      A                      A                      A
 Frequencies --    275.9397               373.6613               381.9106
 Red. masses --      2.5265                 2.2561                 2.0787
 Frc consts  --      0.1133                 0.1856                 0.1786
 IR Inten    --      2.6447                 0.7785                 0.6477

                     16                     17                     18
                      A                      A                      A
 Frequencies --    390.5137               401.3150               417.4747
 Red. masses --      2.0536                 2.2534                 1.7885
 Frc consts  --      0.1845                 0.2138                 0.1837
 IR Inten    --      2.0372                17.6597                 2.6536

                     19                     20                     21
                      A                      A                      A
 Frequencies --    429.8282               485.7178               493.0322
 Red. masses --      1.8737                 2.9905                 3.2107
 Frc consts  --      0.2040                 0.4157                 0.4598
 IR Inten    --      1.1033                 3.1228                 1.3041

                     22                     23                     24
                      A                      A                      A
 Frequencies --    519.6842               537.8559               664.7549
 Red. masses --      2.9906                 3.2201                 2.1381
 Frc consts  --      0.4759                 0.5488                 0.5567
 IR Inten    --      0.7140                 6.2291                 9.9801

                     25                     26                     27
                      A                      A                      A
 Frequencies --    674.1194               761.3468               783.4457
 Red. masses --      2.0013                 3.0919                 1.6613
 Frc consts  --      0.5358                 1.0559                 0.6008
 IR Inten    --      8.3753                 2.4308                 1.4419

                     28                     29                     30
                      A                      A                      A
 Frequencies --    792.4698               794.9888               814.1726
 Red. masses --      2.1610                 2.2579                 2.1376
 Frc consts  --      0.7996                 0.8408                 0.8348
 IR Inten    --      1.7816                17.1743                 7.5698

                     31                     32                     33
                      A                      A                      A
 Frequencies --    837.8084               866.6579               888.9154
 Red. masses --      1.7765                 1.8510                 2.1719
 Frc consts  --      0.7347                 0.8191                 1.0111
 IR Inten    --     16.1717                 9.6908                 6.9886

                     34                     35                     36
                      A                      A                      A
 Frequencies --    907.1731               914.3562               919.6868
 Red. masses --      1.9914                 1.6300                 1.6240
 Frc consts  --      0.9656                 0.8029                 0.8093
 IR Inten    --      2.6043               152.6602               172.7737

                     37                     38                     39
                      A                      A                      A
 Frequencies --    939.6251               949.5802               964.2280
 Red. masses --      1.8702                 1.5637                 2.2778
 Frc consts  --      0.9729                 0.8307                 1.2478
 IR Inten    --     22.4918                 5.9977                 8.3433

                     40                     41                     42
                      A                      A                      A
 Frequencies --    979.6307              1005.1412              1014.7899
 Red. masses --      2.2216                 2.0869                 1.7530
 Frc consts  --      1.2562                 1.2423                 1.0636
 IR Inten    --     12.8197                 3.2203                29.4999

                     43                     44                     45
                      A                      A                      A
 Frequencies --   1040.8281              1053.3401              1063.0281
 Red. masses --      2.1093                 1.8226                 1.7379
 Frc consts  --      1.3463                 1.1915                 1.1571
 IR Inten    --      3.1456                 5.0027                11.1936

                     46                     47                     48
                      A                      A                      A
 Frequencies --   1069.3862              1082.3289              1087.7690
 Red. masses --      1.9292                 1.9749                 2.3712
 Frc consts  --      1.2999                 1.3631                 1.6531
 IR Inten    --      1.8463                 8.4485                 8.4138

                     49                     50                     51
                      A                      A                      A
 Frequencies --   1097.3737              1102.5952              1120.0030
 Red. masses --      1.9334                 2.0860                 1.2121
 Frc consts  --      1.3718                 1.4942                 0.8958
 IR Inten    --      3.1251                 3.4897                 2.0838

                     52                     53                     54
                      A                      A                      A
 Frequencies --   1124.5475              1139.0392              1173.7189
 Red. masses --      1.5420                 1.3847                 1.2626
 Frc consts  --      1.1489                 1.0585                 1.0248
 IR Inten    --      2.3472                 2.9993                 5.0833

                     55                     56                     57
                      A                      A                      A
 Frequencies --   1180.9025              1203.3711              1224.3069
 Red. masses --      1.7943                 1.2868                 1.4681
 Frc consts  --      1.4742                 1.0979                 1.2965
 IR Inten    --     10.3225                 1.1734                 1.8924

                     58                     59                     60
                      A                      A                      A
 Frequencies --   1242.6341              1254.2368              1269.5248
 Red. masses --      1.4101                 1.2811                 1.2447
 Frc consts  --      1.2828                 1.1874                 1.1819
 IR Inten    --      5.5879                 5.0237                 3.6889

                     61                     62                     63
                      A                      A                      A
 Frequencies --   1279.3254              1295.9599              1300.8367
 Red. masses --      1.3301                 1.2155                 1.3000
 Frc consts  --      1.2826                 1.2028                 1.2961
 IR Inten    --      1.6075                 1.2199                 0.4875

                     64                     65                     66
                      A                      A                      A
 Frequencies --   1312.6500              1329.6178              1344.5540
 Red. masses --      1.1764                 1.2516                 1.2887
 Frc consts  --      1.1943                 1.3036                 1.3726
 IR Inten    --      1.5744                 5.4396                 4.3538

                     67                     68                     69
                      A                      A                      A
 Frequencies --   1346.8031              1351.8241              1370.8620
 Red. masses --      1.2530                 1.3746                 1.3212
 Frc consts  --      1.3391                 1.4800                 1.4629
 IR Inten    --      0.4997                 0.8213                 1.4834

                     70                     71                     72
                      A                      A                      A
 Frequencies --   1374.2803              1378.0357              1380.5488
 Red. masses --      1.4347                 1.4681                 1.4755
 Frc consts  --      1.5965                 1.6426                 1.6569
 IR Inten    --     10.1857                 4.3045                 2.6676

                     73                     74                     75
                      A                      A                      A
 Frequencies --   1385.6938              1388.2871              1398.2271
 Red. masses --      1.4263                 1.5014                 1.5652
 Frc consts  --      1.6136                 1.7049                 1.8029
 IR Inten    --      2.2554                 1.0761                 1.5415

                     76                     77                     78
                      A                      A                      A
 Frequencies --   1401.5634              1406.3807              1416.6477
 Red. masses --      1.3983                 1.3903                 1.5196
 Frc consts  --      1.6184                 1.6201                 1.7968
 IR Inten    --      5.1932                 8.4274                17.3775

                     79                     80                     81
                      A                      A                      A
 Frequencies --   1418.5819              1429.5432              1483.4412
 Red. masses --      1.5565                 1.3465                 1.0859
 Frc consts  --      1.8455                 1.6213                 1.4079
 IR Inten    --      3.7972                 9.8375                 0.1441

                     82                     83                     84
                      A                      A                      A
 Frequencies --   1487.6496              1490.0973              1491.0888
 Red. masses --      1.0851                 1.0870                 1.0873
 Frc consts  --      1.4149                 1.4221                 1.4243
 IR Inten    --      0.1667                 1.9576                 6.9757

                     85                     86                     87
                      A                      A                      A
 Frequencies --   1492.4469              1493.9723              1501.8793
 Red. masses --      1.0993                 1.0918                 1.0923
 Frc consts  --      1.4426                 1.4358                 1.4516
 IR Inten    --      4.8018                 4.4939                 5.4266

                     88                     89                     90
                      A                      A                      A
 Frequencies --   1504.4004              1515.2629              1652.7004
 Red. masses --      1.0928                 1.0947                 1.0906
 Frc consts  --      1.4572                 1.4809                 1.7551
 IR Inten    --      1.7080                 5.4546                40.7502

                     91                     92                     93
                      A                      A                      A
 Frequencies --   1658.4020              2941.3094              2975.9618
 Red. masses --      1.0874                 1.0828                 1.0821
 Frc consts  --      1.7621                 5.5193                 5.6465
 IR Inten    --     38.5668               141.0367                22.9207

                     94                     95                     96
                      A                      A                      A
 Frequencies --   2984.0885              3001.4075              3018.0871
 Red. masses --      1.0814                 1.0603                 1.0603
 Frc consts  --      5.6737                 5.6275                 5.6902
 IR Inten    --     50.7203                52.4804                46.6336

                     97                     98                     99
                      A                      A                      A
 Frequencies --   3019.5750              3023.1091              3026.8299
 Red. masses --      1.0637                 1.0614                 1.0668
 Frc consts  --      5.7141                 5.7152                 5.7586
 IR Inten    --     55.6630               153.1491                42.8347

                    100                    101                    102
                      A                      A                      A
 Frequencies --   3029.7486              3034.8687              3039.5321
 Red. masses --      1.0618                 1.0704                 1.0977
 Frc consts  --      5.7423                 5.8085                 5.9753
 IR Inten    --     52.8643                25.5169                31.7651

                    103                    104                    105
                      A                      A                      A
 Frequencies --   3039.9686              3043.0604              3049.6954
 Red. masses --      1.0688                 1.0735                 1.0736
 Frc consts  --      5.8193                 5.8568                 5.8832
 IR Inten    --    117.3694                27.8410                57.4756

                    106                    107                    108
                      A                      A                      A
 Frequencies --   3055.0439              3059.8233              3061.9939
 Red. masses --      1.1021                 1.0972                 1.0957
 Frc consts  --      6.0605                 6.0523                 6.0528
 IR Inten    --     77.1010                90.2797                69.5613

                    109                    110                    111
                      A                      A                      A
 Frequencies --   3070.6122              3073.9700              3075.3387
 Red. masses --      1.1032                 1.1039                 1.1015
 Frc consts  --      6.1287                 6.1457                 6.1377
 IR Inten    --    130.3573               138.7860                41.1884

                    112                    113                    114
                      A                      A                      A
 Frequencies --   3090.8006              3102.5327              3472.7609
 Red. masses --      1.1039                 1.0971                 1.0505
 Frc consts  --      6.2130                 6.2218                 7.4645
 IR Inten    --     91.7276                80.5204                 2.5720

                    115                    116                    117
                      A                      A                      A
 Frequencies --   3475.1931              3551.8161              3551.9557
 Red. masses --      1.0504                 1.0918                 1.0908
 Frc consts  --      7.4741                 8.1151                 8.1082
 IR Inten    --      2.3858                 0.2726                 0.2625

 - Thermochemistry -
 -------------------
 Temperature   298.150 Kelvin.  Pressure   1.00000 Atm.
 Atom     1 has atomic number  7 and mass  14.00307

 Molecular mass:   210.20960 amu.
 Principal axes and moments of inertia in atomic units:
                           1         2         3
     Eigenvalues --  1255.843317651.431468087.12211
           X            0.99999  -0.00313   0.00204
           Y            0.00311   0.99991   0.01310
           Z           -0.00208  -0.01310   0.99991
 This molecule is an asymmetric top.
 Rotational symmetry number  1.
 Warning -- assumption of classical behavior for rotation
           may cause significant error
 Rotational temperatures (Kelvin)      0.06897     0.01132     0.01071
 Rotational constants (GHZ):           1.43708     0.23587     0.22316
 Zero-point vibrational energy    1008383.0 (Joules/Mol)
                                  241.00932 (Kcal/Mol)
 Warning -- explicit consideration of  23 degrees of freedom as
           vibrations may cause significant error
 Vibrational temperatures:     10.30    59.83   104.13   129.28   181.30
          (Kelvin)            243.07   293.08   308.55   340.13   353.63
                              365.49   386.72   397.02   537.62   549.48
                              561.86   577.40   600.65   618.43   698.84
                              709.36   747.71   773.85   956.43   969.91
                             1095.41  1127.20  1140.19  1143.81  1171.41
                             1205.42  1246.93  1278.95  1305.22  1315.55
                             1323.22  1351.91  1366.23  1387.31  1409.47
                             1446.17  1460.06  1497.52  1515.52  1529.46
                             1538.61  1557.23  1565.06  1578.88  1586.39
                             1611.43  1617.97  1638.82  1688.72  1699.06
                             1731.38  1761.50  1787.87  1804.57  1826.56
                             1840.66  1864.60  1871.61  1888.61  1913.02
                             1934.51  1937.75  1944.97  1972.36  1977.28
                             1982.69  1986.30  1993.70  1997.44  2011.74
                             2016.54  2023.47  2038.24  2041.02  2056.79
                             2134.34  2140.40  2143.92  2145.34  2147.30
                             2149.49  2160.87  2164.50  2180.13  2377.87
                             2386.07  4231.89  4281.75  4293.44  4318.36
                             4342.35  4344.50  4349.58  4354.93  4359.13
                             4366.50  4373.21  4373.84  4378.29  4387.83
                             4395.53  4402.40  4405.53  4417.93  4422.76
                             4424.73  4446.97  4463.85  4996.53  5000.03
                             5110.27  5110.47

 Zero-point correction=                           0.384073 (Hartree/Particle)
 Thermal correction to Energy=                    0.399611
 Thermal correction to Enthalpy=                  0.400555
 Thermal correction to Gibbs Free Energy=         0.340002
 Sum of electronic and zero-point Energies=           -620.208281
 Sum of electronic and thermal Energies=              -620.192743
 Sum of electronic and thermal Enthalpies=            -620.191799
 Sum of electronic and thermal Free Energies=         -620.252352

                     E (Thermal)             CV                S
                      KCal/Mol        Cal/Mol-Kelvin    Cal/Mol-Kelvin
 Total                  250.760             62.197            127.445
 Electronic               0.000              0.000              0.000
 Translational            0.889              2.981             41.933
 Rotational               0.889              2.981             32.719
 Vibrational            248.982             56.236             52.793
 Vibration     1          0.593              1.987              8.675
 Vibration     2          0.594              1.981              5.182
 Vibration     3          0.598              1.967              4.088
 Vibration     4          0.602              1.956              3.663
 Vibration     5          0.611              1.927              3.006
 Vibration     6          0.625              1.881              2.447
 Vibration     7          0.639              1.835              2.099
 Vibration     8          0.644              1.819              2.005
 Vibration     9          0.655              1.785              1.830
 Vibration    10          0.660              1.770              1.761
 Vibration    11          0.665              1.756              1.702
 Vibration    12          0.673              1.731              1.604
 Vibration    13          0.678              1.718              1.559
 Vibration    14          0.745              1.526              1.065
 Vibration    15          0.751              1.509              1.032
 Vibration    16          0.758              1.490              0.998
 Vibration    17          0.767              1.467              0.958
 Vibration    18          0.781              1.432              0.901
 Vibration    19          0.791              1.405              0.859
 Vibration    20          0.842              1.282              0.695
 Vibration    21          0.849              1.265              0.676
 Vibration    22          0.875              1.206              0.611
 Vibration    23          0.893              1.166              0.570

 Optimization completed on the basis of negligible forces.
    -- Stationary point found.
 Normal termination of Gaussian 16 at Wed Jul 17 17:55:29 2024.
 Gaussian 16:  ES64L-G16RevA.03 25-Dec-2016

 ----------------------------------------------------------------------
 # TD(NStates=10, Root=1) B3LYP/6-31G** SCRF=(Solvent=water) volume pop
 =NPA density=current Geom=AllCheck Guess=Read
 ----------------------------------------------------------------------

 Structure from the checkpoint file:  "DZIHTWJGPDVSGE-ROTMJFINSA-N_conf_0_2.chk"
 ----------------------------------
 DZIHTWJGPDVSGE-ROTMJFINSA-N_conf_0
 ----------------------------------
 Charge =  0 Multiplicity = 1

                         Standard orientation:
 ---------------------------------------------------------------------
 Center     Atomic      Atomic             Coordinates (Angstroms)
 Number     Number       Type             X           Y           Z
 ---------------------------------------------------------------------
      1          7           0       -3.986500   -1.107005    1.393059
      2          6           0       -4.128914   -0.461678    0.071090
      3          6           0       -3.186578   -1.133720   -0.935487
      4          6           0       -1.693758   -0.899109   -0.605500
      5          6           0       -1.394573    0.520896   -0.041641
      6          6           0       -0.002519    1.072786   -0.416490
      7          6           0        1.229663    0.458869    0.284232
      8          6           0        1.652734   -0.919094   -0.263979
      9          6           0        2.908914   -1.463630    0.434543
     10          6           0        4.103399   -0.497540    0.372941
     11          7           0        4.584837   -0.385549   -1.017402
     12          6           0        3.682623    0.887411    0.893169
     13          6           0        2.425332    1.431299    0.200270
     14          6           0       -2.507205    1.491545   -0.482743
     15          6           0       -3.894874    1.081327    0.052969
     16          1           0       -3.057022   -0.916891    1.764849
     17          1           0       -4.624548   -0.653866    2.046066
     18          1           0       -5.162230   -0.656154   -0.240840
     19          1           0       -3.410060   -0.728928   -1.929894
     20          1           0       -3.394545   -2.208215   -0.979704
     21          1           0       -1.109040   -1.060832   -1.518650
     22          1           0       -1.355032   -1.658380    0.107624
     23          1           0       -1.432115    0.473503    1.058164
     24          1           0        0.130693    1.010223   -1.507179
     25          1           0       -0.007649    2.145639   -0.178366
     26          1           0        0.980729    0.335192    1.351548
     27          1           0        1.847624   -0.826104   -1.339941
     28          1           0        0.842345   -1.645004   -0.151828
     29          1           0        2.682327   -1.658368    1.491603
     30          1           0        3.193258   -2.430612   -0.001549
     31          1           0        4.887865   -0.886690    1.045423
     32          1           0        5.410615    0.211229   -1.033016
     33          1           0        4.907197   -1.300616   -1.328909
     34          1           0        4.515165    1.594475    0.779061
     35          1           0        3.495869    0.803111    1.972298
     36          1           0        2.648499    1.629546   -0.855748
     37          1           0        2.148533    2.394017    0.648724
     38          1           0       -2.526722    1.529407   -1.580849
     39          1           0       -2.271843    2.509290   -0.149421
     40          1           0       -4.023532    1.461492    1.074298
     41          1           0       -4.670194    1.565233   -0.553615
 ---------------------------------------------------------------------

 SCF Done:  E(RB3LYP) =  -620.592353966     A.U. after    1 cycles

 Excitation energies and oscillator strengths:

 Excited State   1:      Singlet-A      7.1799 eV  172.68 nm  f=0.0152  <S**2>=0.000
      58 -> 60         0.59100
      58 -> 61        -0.34729
      58 -> 63        -0.10638
 This state for optimization and/or second-order correction.
 Total Energy, E(TD-HF/TD-DFT) =  -620.328496278
 Copying the excited state density for this state as the 1-particle RhoCI density.

 Excited State   2:      Singlet-A      7.1864 eV  172.53 nm  f=0.0167  <S**2>=0.000
      59 -> 60         0.40944
      59 -> 61         0.54002
      59 -> 62         0.13113

 Excited State   3:      Singlet-A      7.8415 eV  158.11 nm  f=0.0129  <S**2>=0.000
      58 -> 60        -0.18201
      58 -> 61        -0.38126
      58 -> 62         0.53756

 Excited State   4:      Singlet-A      7.8803 eV  157.34 nm  f=0.0051  <S**2>=0.000
      59 -> 60         0.56891
      59 -> 61        -0.38077
      59 -> 62        -0.12389

 Excited State   5:      Singlet-A      8.0359 eV  154.29 nm  f=0.0091  <S**2>=0.000
      58 -> 60         0.32786
      58 -> 61         0.44441
      58 -> 62         0.40400
      58 -> 64        -0.10469

 Excited State   6:      Singlet-A      8.1810 eV  151.55 nm  f=0.0140  <S**2>=0.000
      59 -> 61        -0.19473
      59 -> 62         0.62146
      59 -> 64         0.21177

 Excited State   7:      Singlet-A      8.4384 eV  146.93 nm  f=0.0123  <S**2>=0.000
      58 -> 61        -0.16597
      58 -> 63         0.51576
      58 -> 64        -0.25606
      58 -> 65         0.15087
      58 -> 66         0.29272

 Excited State   8:      Singlet-A      8.5494 eV  145.02 nm  f=0.0003  <S**2>=0.000
      57 -> 60         0.66709
      59 -> 63        -0.13067

 Excited State   9:      Singlet-A      8.5782 eV  144.53 nm  f=0.0032  <S**2>=0.000
      57 -> 60         0.13818
      59 -> 61         0.11383
      59 -> 63         0.62463
      59 -> 64         0.15329
      59 -> 66        -0.13972

 Excited State  10:      Singlet-A      8.7013 eV  142.49 nm  f=0.0244  <S**2>=0.000
      58 -> 64         0.39547
      58 -> 65         0.40662
      58 -> 67        -0.36299

 The electronic state is 1-A.
 Alpha  occ. eigenvalues --  -14.30582 -14.30525 -10.20381 -10.20276 -10.18012
 Alpha  occ. eigenvalues --  -10.17656 -10.17275 -10.17197 -10.17172 -10.17163
 Alpha  occ. eigenvalues --  -10.17138 -10.17101 -10.16994 -10.16831 -10.16696
 Alpha  occ. eigenvalues --   -0.87894  -0.87844  -0.81861  -0.79763  -0.74608
 Alpha  occ. eigenvalues --   -0.73188  -0.72926  -0.70937  -0.65146  -0.60935
 Alpha  occ. eigenvalues --   -0.60067  -0.58687  -0.56172  -0.53515  -0.52036
 Alpha  occ. eigenvalues --   -0.48738  -0.47844  -0.47149  -0.46712  -0.44746
 Alpha  occ. eigenvalues --   -0.43938  -0.43052  -0.42308  -0.40789  -0.40304
 Alpha  occ. eigenvalues --   -0.38831  -0.38186  -0.37203  -0.36569  -0.36209
 Alpha  occ. eigenvalues --   -0.35585  -0.35142  -0.34618  -0.33764  -0.33027
 Alpha  occ. eigenvalues --   -0.32531  -0.31193  -0.30840  -0.29901  -0.29359
 Alpha  occ. eigenvalues --   -0.28499  -0.27304  -0.23148  -0.23112
 Alpha virt. eigenvalues --    0.07265   0.07787   0.09216   0.10983   0.11659
 Alpha virt. eigenvalues --    0.12572   0.12956   0.13290   0.14380   0.14553
 Alpha virt. eigenvalues --    0.14699   0.15036   0.15918   0.16496   0.16910

 Mulliken charges:
               1
     1  N   -0.152539
     2  C    0.009938
     3  C   -0.163015
     4  C   -0.138404
     5  C    0.005353
     6  C   -0.179156
     7  C   -0.049556
     8  C   -0.158673
     9  C   -0.186433
    10  C    0.061455
    11  N   -0.628035
    12  C   -0.184796
    13  C   -0.166054
    14  C   -0.172819
    15  C   -0.156412
    16  H    0.078092
    17  H    0.122939
    18  H    0.097402
    19  H    0.073629
    20  H    0.072471
    21  H    0.062323
    22  H    0.013884
    23  H   -0.042028
    24  H    0.076867
    25  H    0.067921
    26  H    0.063732
    27  H    0.086644
    28  H    0.084223
    29  H    0.087705
    30  H    0.083020
    31  H    0.065318
    32  H    0.245478
    33  H    0.245585
    34  H    0.083479
    35  H    0.088468
    36  H    0.089047
    37  H    0.079162
    38  H    0.086511
    39  H    0.073054
    40  H    0.068265
    41  H    0.105957
 Sum of Mulliken charges =  -0.00000

 Dipole moment (field-independent basis, Debye):
    X=             -1.8435    Y=             -0.7243    Z=              1.0360  Tot=              2.2353
 Quadrupole moment (field-independent basis, Debye-Ang):
   XX=            -70.6404   YY=            -97.6905   ZZ=            -99.3807
   XY=             -1.3387   XZ=             -1.6729   YZ=             -0.3301

 Summary of Natural Population Analysis:

                                       Natural Population
                Natural  -----------------------------------------------
    Atom  No    Charge         Core      Valence    Rydberg      Total
 -----------------------------------------------------------------------
      N    1   -0.37727      1.99933     5.36207    0.01587     7.37727
      C    2   -0.12713      1.99918     4.11177    0.01618     6.12713
      C    3   -0.47730      1.99929     4.46549    0.01252     6.47730
      C    4   -0.47962      1.99931     4.46690    0.01341     6.47962
      C    5   -0.25962      1.99921     4.24565    0.01476     6.25962
      C    6   -0.45458      1.99928     4.44028    0.01503     6.45458
      C    7   -0.24917      1.99921     4.23620    0.01376     6.24917
      C    8   -0.46381      1.99930     4.45216    0.01235     6.46381
      C    9   -0.47251      1.99929     4.46060    0.01262     6.47251
      C   10   -0.05648      1.99921     4.04107    0.01620     6.05648
      N   11   -0.93621      1.99963     5.92131    0.01527     7.93621
      C   12   -0.47273      1.99929     4.46076    0.01269     6.47273
      C   13   -0.46160      1.99931     4.45005    0.01223     6.46160
      C   14   -0.46575      1.99928     4.45443    0.01204     6.46575
      C   15   -0.44880      1.99924     4.43701    0.01255     6.44880
      H   16    0.23350      0.00000     0.69577    0.07073     0.76650
      H   17    0.27217      0.00000     0.66876    0.05907     0.72783
      H   18    0.24269      0.00000     0.73636    0.02095     0.75731
      H   19    0.21912      0.00000     0.76717    0.01371     0.78088
      H   20    0.23017      0.00000     0.75787    0.01195     0.76983
      H   21    0.22001      0.00000     0.77162    0.00837     0.77999
      H   22    0.17556      0.00000     0.79800    0.02643     0.82444
      H   23    0.14625      0.00000     0.81302    0.04073     0.85375
      H   24    0.22639      0.00000     0.77090    0.00270     0.77361
      H   25    0.22487      0.00000     0.77061    0.00452     0.77513
      H   26    0.22600      0.00000     0.76915    0.00485     0.77400
      H   27    0.23117      0.00000     0.76600    0.00283     0.76883
      H   28    0.23444      0.00000     0.76234    0.00322     0.76556
      H   29    0.23430      0.00000     0.76346    0.00223     0.76570
      H   30    0.23743      0.00000     0.76072    0.00185     0.76257
      H   31    0.21718      0.00000     0.77995    0.00286     0.78282
      H   32    0.38633      0.00000     0.61084    0.00283     0.61367
      H   33    0.38640      0.00000     0.61078    0.00282     0.61360
      H   34    0.23768      0.00000     0.76045    0.00187     0.76232
      H   35    0.23491      0.00000     0.76298    0.00211     0.76509
      H   36    0.23232      0.00000     0.76490    0.00278     0.76768
      H   37    0.23436      0.00000     0.76347    0.00217     0.76564
      H   38    0.22981      0.00000     0.76318    0.00701     0.77019
      H   39    0.22865      0.00000     0.76254    0.00881     0.77135
      H   40    0.21579      0.00000     0.76131    0.02290     0.78421
      H   41    0.24446      0.00000     0.74411    0.01143     0.75554
 =======================================================================
   * Total *   -0.00062     29.98937    87.46204    0.54921   118.00062

 Normal termination of Gaussian 16 at Wed Jul 17 18:28:04 2024.
