 Gaussian 16, Revision A.03,

 -------------------------------------------------------
 # opt=CalcFc B3LYP/6-31G** SCRF=(Solvent=water) scf=xqc
 -------------------------------------------------------

 ----------------------------------
 DZIHTWJGPDVSGE-ROTMJFINSA-N_conf_2
 ----------------------------------
 Symbolic Z-matrix:
 Charge =  0 Multiplicity = 1

 SCF Done:  E(RB3LYP) =  -620.592414542     A.U. after   11 cycles
 SCF Done:  E(RB3LYP) =  -620.597047314     A.U. after    9 cycles
 SCF Done:  E(RB3LYP) =  -620.597265108     A.U. after    8 cycles
 SCF Done:  E(RB3LYP) =  -620.597274295     A.U. after    8 cycles
 SCF Done:  E(RB3LYP) =  -620.597283280     A.U. after    7 cycles
 SCF Done:  E(RB3LYP) =  -620.597283416     A.U. after    6 cycles
 Optimization completed.
    -- Stationary point found.
 Normal termination of Gaussian 16 at Wed Jul 17 17:21:40 2024.

 ----------------------------------------------------------------------
 # freq B3LYP/6-31G** SCRF=(Solvent=water) volume NMR pop=NPA density=c
 urrent Geom=AllCheck Guess=Read
 ----------------------------------------------------------------------

 Structure from the checkpoint file:  "DZIHTWJGPDVSGE-ROTMJFINSA-N_conf_2_1.chk"
 ----------------------------------
 DZIHTWJGPDVSGE-ROTMJFINSA-N_conf_2
 ----------------------------------
 Charge =  0 Multiplicity = 1

 SCF Done:  E(RB3LYP) =  -620.597283416     A.U. after    1 cycles

      1  N    Isotropic =   216.9128   Anisotropy =    47.4854

      2  C    Isotropic =   139.4691   Anisotropy =    31.1299

      3  C    Isotropic =   151.2161   Anisotropy =    27.4613

      4  C    Isotropic =   159.3852   Anisotropy =    12.7204

      5  C    Isotropic =   150.3604   Anisotropy =    16.6548

      6  C    Isotropic =   148.0520   Anisotropy =    40.4528

      7  C    Isotropic =   158.4013   Anisotropy =    19.9336

      8  C    Isotropic =   161.0579   Anisotropy =    25.5473

      9  C    Isotropic =   154.4354   Anisotropy =    31.1880

     10  C    Isotropic =   143.9514   Anisotropy =    35.5921

     11  N    Isotropic =   216.4306   Anisotropy =    43.6570

     12  C    Isotropic =   161.3610   Anisotropy =    23.2576

     13  C    Isotropic =   158.8744   Anisotropy =    28.0551

     14  C    Isotropic =   156.0511   Anisotropy =    24.5247

     15  C    Isotropic =   156.0890   Anisotropy =    19.0571

     16  H    Isotropic =    31.0820   Anisotropy =    14.1128

     17  H    Isotropic =    31.7358   Anisotropy =    11.1855

     18  H    Isotropic =    29.3352   Anisotropy =     4.8688

     19  H    Isotropic =    30.0669   Anisotropy =     7.2382

     20  H    Isotropic =    30.7924   Anisotropy =     5.4746

     21  H    Isotropic =    30.7893   Anisotropy =     5.4570

     22  H    Isotropic =    29.9210   Anisotropy =     8.8117

     23  H    Isotropic =    30.4401   Anisotropy =     4.0167

     24  H    Isotropic =    30.6119   Anisotropy =     5.2927

     25  H    Isotropic =    30.9635   Anisotropy =     3.7704

     26  H    Isotropic =    30.2291   Anisotropy =     5.1665

     27  H    Isotropic =    30.4915   Anisotropy =     6.0675

     28  H    Isotropic =    30.1602   Anisotropy =     8.2139

     29  H    Isotropic =    29.8960   Anisotropy =     6.5115

     30  H    Isotropic =    30.8071   Anisotropy =     7.3412

     31  H    Isotropic =    28.9537   Anisotropy =     4.0158

     32  H    Isotropic =    31.9227   Anisotropy =    11.4943

     33  H    Isotropic =    30.9827   Anisotropy =    13.8909

     34  H    Isotropic =    30.4284   Anisotropy =     6.5630

     35  H    Isotropic =    30.2537   Anisotropy =     8.6460

     36  H    Isotropic =    30.6079   Anisotropy =     6.4727

     37  H    Isotropic =    29.9603   Anisotropy =     7.9189

     38  H    Isotropic =    30.2241   Anisotropy =     7.5810

     39  H    Isotropic =    30.6509   Anisotropy =     5.7002

     40  H    Isotropic =    30.7466   Anisotropy =     6.1279

     41  H    Isotropic =    30.0094   Anisotropy =     8.6869

  Exact polarizability: 210.826  -0.295 189.571  -2.976   0.161 178.734
 Approx polarizability: 205.285  -0.903 200.089  -3.203   1.281 204.605

                      1                      2                      3
                      A                      A                      A
 Frequencies --     36.1430                44.8751                64.3868
 Red. masses --      3.5345                 3.1108                 3.3162
 Frc consts  --      0.0027                 0.0037                 0.0081
 IR Inten    --      1.0371                 0.9959                 0.0934

                      4                      5                      6
                      A                      A                      A
 Frequencies --     86.3970               133.0038               173.5741
 Red. masses --      3.0538                 2.5357                 1.9558
 Frc consts  --      0.0134                 0.0264                 0.0347
 IR Inten    --      0.0484                 0.1841                 1.5238

                      7                      8                      9
                      A                      A                      A
 Frequencies --    188.0844               213.3956               224.8694
 Red. masses --      2.8447                 3.1072                 2.0821
 Frc consts  --      0.0593                 0.0834                 0.0620
 IR Inten    --      2.0744                 0.9337                 5.5315

                     10                     11                     12
                      A                      A                      A
 Frequencies --    241.8988               262.0170               269.4532
 Red. masses --      2.2000                 1.3546                 1.2501
 Frc consts  --      0.0758                 0.0548                 0.0535
 IR Inten    --      7.8868                35.6622                41.8011

                     13                     14                     15
                      A                      A                      A
 Frequencies --    277.4058               343.1543               356.5350
 Red. masses --      1.5726                 2.6643                 2.7084
 Frc consts  --      0.0713                 0.1848                 0.2028
 IR Inten    --     33.4095                21.7341                16.5939

                     16                     17                     18
                      A                      A                      A
 Frequencies --    377.2052               403.5372               427.5937
 Red. masses --      2.0506                 2.6677                 1.8764
 Frc consts  --      0.1719                 0.2560                 0.2021
 IR Inten    --      0.6776                 1.2791                 3.5096

                     19                     20                     21
                      A                      A                      A
 Frequencies --    436.8600               460.7663               475.3158
 Red. masses --      2.0847                 2.5574                 2.7215
 Frc consts  --      0.2344                 0.3199                 0.3623
 IR Inten    --      0.3360                 2.3747                 1.0620

                     22                     23                     24
                      A                      A                      A
 Frequencies --    493.2586               510.4168               594.2069
 Red. masses --      3.3053                 3.6637                 2.2577
 Frc consts  --      0.4738                 0.5624                 0.4697
 IR Inten    --      2.7467                 2.2905                 0.6708

                     25                     26                     27
                      A                      A                      A
 Frequencies --    627.5012               772.7682               779.0286
 Red. masses --      2.3692                 1.9788                 2.2219
 Frc consts  --      0.5496                 0.6962                 0.7945
 IR Inten    --      1.5233                 0.8278                 2.2451

                     28                     29                     30
                      A                      A                      A
 Frequencies --    787.8516               797.7814               825.6184
 Red. masses --      2.0197                 1.4820                 1.9787
 Frc consts  --      0.7386                 0.5557                 0.7947
 IR Inten    --      1.1608                 0.4267                 4.6122

                     31                     32                     33
                      A                      A                      A
 Frequencies --    873.3990               899.1311               908.5997
 Red. masses --      1.7832                 1.6004                 1.6219
 Frc consts  --      0.8015                 0.7623                 0.7889
 IR Inten    --      1.2746                81.2013                38.4522

                     34                     35                     36
                      A                      A                      A
 Frequencies --    914.9855               917.5132               928.2000
 Red. masses --      1.7834                 1.8205                 1.4973
 Frc consts  --      0.8797                 0.9029                 0.7600
 IR Inten    --      0.8348                 7.3855               177.1999

                     37                     38                     39
                      A                      A                      A
 Frequencies --    935.5782               957.6858               977.6038
 Red. masses --      1.7448                 2.1027                 1.7564
 Frc consts  --      0.8998                 1.1363                 0.9890
 IR Inten    --     25.3446                19.6081               147.3347

                     40                     41                     42
                      A                      A                      A
 Frequencies --    991.7359              1013.3064              1027.1271
 Red. masses --      1.8403                 3.2989                 2.3547
 Frc consts  --      1.0664                 1.9957                 1.4637
 IR Inten    --     18.9951                 0.9830                 2.9046

                     43                     44                     45
                      A                      A                      A
 Frequencies --   1056.9190              1063.4781              1072.7748
 Red. masses --      1.6136                 1.7347                 1.8077
 Frc consts  --      1.0620                 1.1559                 1.2257
 IR Inten    --      6.2753                 6.4376                 0.1181

                     46                     47                     48
                      A                      A                      A
 Frequencies --   1078.5057              1085.6130              1092.5512
 Red. masses --      2.0718                 1.2316                 2.6836
 Frc consts  --      1.4199                 0.8552                 1.8873
 IR Inten    --      0.7299                 1.4068                 6.5666

                     49                     50                     51
                      A                      A                      A
 Frequencies --   1109.1016              1119.2015              1122.0005
 Red. masses --      2.3129                 1.1465                 1.9462
 Frc consts  --      1.6763                 0.8462                 1.4435
 IR Inten    --      5.3880                 1.0273                 4.8364

                     52                     53                     54
                      A                      A                      A
 Frequencies --   1132.4745              1143.9012              1163.7066
 Red. masses --      2.0444                 2.4227                 1.7768
 Frc consts  --      1.5448                 1.8678                 1.4177
 IR Inten    --     27.5037                21.2179                 6.3710

                     55                     56                     57
                      A                      A                      A
 Frequencies --   1186.1331              1212.4506              1240.4468
 Red. masses --      1.5798                 1.6634                 1.3564
 Frc consts  --      1.3095                 1.4407                 1.2297
 IR Inten    --      5.2855                 0.9589                 9.9984

                     58                     59                     60
                      A                      A                      A
 Frequencies --   1249.1014              1258.1536              1268.6656
 Red. masses --      1.4833                 1.2806                 1.2449
 Frc consts  --      1.3636                 1.1944                 1.1806
 IR Inten    --      0.6389                 2.3408                 7.3373

                     61                     62                     63
                      A                      A                      A
 Frequencies --   1278.3248              1300.2417              1306.5749
 Red. masses --      1.1966                 1.3216                 1.2947
 Frc consts  --      1.1521                 1.3164                 1.3022
 IR Inten    --      0.1920                 0.9382                 4.0278

                     64                     65                     66
                      A                      A                      A
 Frequencies --   1315.4075              1328.8894              1336.0274
 Red. masses --      1.2405                 1.3366                 1.2535
 Frc consts  --      1.2646                 1.3907                 1.3183
 IR Inten    --      2.7441                 3.1512                 0.0203

                     67                     68                     69
                      A                      A                      A
 Frequencies --   1343.8159              1345.0247              1353.1407
 Red. masses --      1.3476                 1.2856                 1.2355
 Frc consts  --      1.4338                 1.3703                 1.3328
 IR Inten    --      3.1884                 2.2426                 0.3756

                     70                     71                     72
                      A                      A                      A
 Frequencies --   1363.4237              1373.0547              1378.6072
 Red. masses --      1.4050                 1.3041                 1.3218
 Frc consts  --      1.5389                 1.4486                 1.4801
 IR Inten    --      0.3566                 6.1828                 1.9181

                     73                     74                     75
                      A                      A                      A
 Frequencies --   1380.1405              1381.6286              1387.3476
 Red. masses --      1.3450                 1.3518                 1.4835
 Frc consts  --      1.5095                 1.5204                 1.6823
 IR Inten    --     11.3941                 5.5201                 4.1108

                     76                     77                     78
                      A                      A                      A
 Frequencies --   1399.4534              1404.6806              1405.3600
 Red. masses --      1.5334                 1.5243                 1.5042
 Frc consts  --      1.7694                 1.7720                 1.7503
 IR Inten    --      1.8716                 0.4977                 0.4887

                     79                     80                     81
                      A                      A                      A
 Frequencies --   1431.3756              1436.0317              1486.6415
 Red. masses --      1.4686                 1.4127                 1.0875
 Frc consts  --      1.7728                 1.7165                 1.4161
 IR Inten    --      5.3658                 4.9308                 0.1866

                     82                     83                     84
                      A                      A                      A
 Frequencies --   1490.5654              1492.0000              1493.8462
 Red. masses --      1.0895                 1.0847                 1.0887
 Frc consts  --      1.4262                 1.4226                 1.4314
 IR Inten    --      0.1411                 2.0437                 2.0667

                     85                     86                     87
                      A                      A                      A
 Frequencies --   1495.5940              1497.5490              1504.4049
 Red. masses --      1.0862                 1.0893                 1.0953
 Frc consts  --      1.4315                 1.4394                 1.4606
 IR Inten    --      2.1984                 7.3080                 0.5646

                     88                     89                     90
                      A                      A                      A
 Frequencies --   1509.3736              1520.0295              1653.9703
 Red. masses --      1.1024                 1.0946                 1.0891
 Frc consts  --      1.4797                 1.4900                 1.7555
 IR Inten    --      1.2788                 4.5571                34.1436

                     91                     92                     93
                      A                      A                      A
 Frequencies --   1654.5639              2981.1542              2996.2858
 Red. masses --      1.0905                 1.0814                 1.0801
 Frc consts  --      1.7590                 5.6627                 5.7131
 IR Inten    --     36.4690                19.7087                 7.4468

                     94                     95                     96
                      A                      A                      A
 Frequencies --   3000.8514              3002.9393              3004.1311
 Red. masses --      1.0787                 1.0628                 1.0666
 Frc consts  --      5.7235                 5.6465                 5.6713
 IR Inten    --      6.9641                28.1622                42.3962

                     97                     98                     99
                      A                      A                      A
 Frequencies --   3009.4406              3012.6292              3013.2558
 Red. masses --      1.0632                 1.0720                 1.0719
 Frc consts  --      5.6731                 5.7322                 5.7342
 IR Inten    --     10.2920                14.6926                16.8504

                    100                    101                    102
                      A                      A                      A
 Frequencies --   3015.9458              3019.8764              3022.9238
 Red. masses --      1.0655                 1.0646                 1.0759
 Frc consts  --      5.7103                 5.7203                 5.7926
 IR Inten    --    227.8721                97.9650                75.6173

                    103                    104                    105
                      A                      A                      A
 Frequencies --   3026.3560              3031.1653              3042.5402
 Red. masses --      1.0680                 1.0675                 1.1007
 Frc consts  --      5.7633                 5.7789                 6.0035
 IR Inten    --     47.0822                73.7917                63.1612

                    106                    107                    108
                      A                      A                      A
 Frequencies --   3055.8408              3059.6477              3063.4131
 Red. masses --      1.0998                 1.0987                 1.1019
 Frc consts  --      6.0510                 6.0602                 6.0925
 IR Inten    --    130.1796                96.4212                86.8738

                    109                    110                    111
                      A                      A                      A
 Frequencies --   3063.5989              3071.2924              3076.4930
 Red. masses --      1.1005                 1.0969                 1.0961
 Frc consts  --      6.0857                 6.0960                 6.1124
 IR Inten    --     71.0835               115.4364                79.2501

                    112                    113                    114
                      A                      A                      A
 Frequencies --   3083.0199              3097.6692              3455.4681
 Red. masses --      1.0985                 1.0936                 1.0506
 Frc consts  --      6.1518                 6.1828                 7.3906
 IR Inten    --    116.4711                65.6107                 3.4920

                    115                    116                    117
                      A                      A                      A
 Frequencies --   3458.0616              3533.6053              3536.4252
 Red. masses --      1.0505                 1.0908                 1.0908
 Frc consts  --      7.4013                 8.0244                 8.0377
 IR Inten    --      2.9275                 0.7496                 0.7946

 - Thermochemistry -
 -------------------
 Temperature   298.150 Kelvin.  Pressure   1.00000 Atm.
 Atom     1 has atomic number  7 and mass  14.00307

 Molecular mass:   210.20960 amu.
 Principal axes and moments of inertia in atomic units:
                           1         2         3
     Eigenvalues --  1143.530548431.908679121.10828
           X            1.00000  -0.00017  -0.00305
           Y            0.00016   1.00000  -0.00152
           Z            0.00305   0.00152   0.99999
 This molecule is an asymmetric top.
 Rotational symmetry number  1.
 Warning -- assumption of classical behavior for rotation
           may cause significant error
 Rotational temperatures (Kelvin)      0.07574     0.01027     0.00950
 Rotational constants (GHZ):           1.57822     0.21404     0.19786
 Zero-point vibrational energy    1007650.9 (Joules/Mol)
                                  240.83433 (Kcal/Mol)
 Warning -- explicit consideration of  24 degrees of freedom as
           vibrations may cause significant error
 Vibrational temperatures:     52.00    64.57    92.64   124.31   191.36
          (Kelvin)            249.73   270.61   307.03   323.54   348.04
                              376.98   387.68   399.13   493.72   512.97
                              542.71   580.60   615.21   628.54   662.94
                              683.87   709.69   734.38   854.93   902.83
                             1111.84  1120.85  1133.54  1147.83  1187.88
                             1256.63  1293.65  1307.27  1316.46  1320.10
                             1335.47  1346.09  1377.90  1406.55  1426.89
                             1457.92  1477.81  1520.67  1530.11  1543.48
                             1551.73  1561.95  1571.94  1595.75  1610.28
                             1614.31  1629.38  1645.82  1674.31  1706.58
                             1744.45  1784.73  1797.18  1810.20  1825.33
                             1839.22  1870.76  1879.87  1892.58  1911.98
                             1922.25  1933.45  1935.19  1946.87  1961.66
                             1975.52  1983.51  1985.71  1987.86  1996.08
                             2013.50  2021.02  2022.00  2059.43  2066.13
                             2138.95  2144.59  2146.66  2149.31  2151.83
                             2154.64  2164.50  2171.65  2186.98  2379.69
                             2380.55  4289.22  4310.99  4317.56  4320.56
                             4322.27  4329.91  4334.50  4335.40  4339.27
                             4344.93  4349.31  4354.25  4361.17  4377.54
                             4396.67  4402.15  4407.57  4407.84  4418.90
                             4426.39  4435.78  4456.86  4971.65  4975.38
                             5084.07  5088.13

 Zero-point correction=                           0.383794 (Hartree/Particle)
 Thermal correction to Energy=                    0.399438
 Thermal correction to Enthalpy=                  0.400382
 Thermal correction to Gibbs Free Energy=         0.340952
 Sum of electronic and zero-point Energies=           -620.213489
 Sum of electronic and thermal Energies=              -620.197846
 Sum of electronic and thermal Enthalpies=            -620.196901
 Sum of electronic and thermal Free Energies=         -620.256332

                     E (Thermal)             CV                S
                      KCal/Mol        Cal/Mol-Kelvin    Cal/Mol-Kelvin
 Total                  250.651             62.451            125.082
 Electronic               0.000              0.000              0.000
 Translational            0.889              2.981             41.933
 Rotational               0.889              2.981             32.842
 Vibrational            248.874             56.490             50.308
 Vibration     1          0.594              1.982              5.460
 Vibration     2          0.595              1.979              5.031
 Vibration     3          0.597              1.971              4.318
 Vibration     4          0.601              1.959              3.740
 Vibration     5          0.613              1.920              2.902
 Vibration     6          0.627              1.875              2.396
 Vibration     7          0.633              1.856              2.247
 Vibration     8          0.644              1.821              2.014
 Vibration     9          0.650              1.803              1.920
 Vibration    10          0.658              1.776              1.789
 Vibration    11          0.669              1.742              1.648
 Vibration    12          0.674              1.729              1.600
 Vibration    13          0.678              1.715              1.550
 Vibration    14          0.722              1.589              1.197
 Vibration    15          0.732              1.562              1.137
 Vibration    16          0.748              1.519              1.050
 Vibration    17          0.769              1.462              0.950
 Vibration    18          0.789              1.410              0.867
 Vibration    19          0.797              1.390              0.837
 Vibration    20          0.819              1.337              0.764
 Vibration    21          0.832              1.305              0.723
 Vibration    22          0.849              1.265              0.675
 Vibration    23          0.866              1.227              0.633
 Vibration    24          0.952              1.044              0.460

 Optimization completed.
    -- Stationary point found.
 Normal termination of Gaussian 16 at Wed Jul 17 17:49:53 2024.
 Gaussian 16:  ES64L-G16RevA.03 25-Dec-2016

 ----------------------------------------------------------------------
 # TD(NStates=10, Root=1) B3LYP/6-31G** SCRF=(Solvent=water) volume pop
 =NPA density=current Geom=AllCheck Guess=Read
 ----------------------------------------------------------------------

 Structure from the checkpoint file:  "DZIHTWJGPDVSGE-ROTMJFINSA-N_conf_2_2.chk"
 ----------------------------------
 DZIHTWJGPDVSGE-ROTMJFINSA-N_conf_2
 ----------------------------------
 Charge =  0 Multiplicity = 1

                         Standard orientation:
 ---------------------------------------------------------------------
 Center     Atomic      Atomic             Coordinates (Angstroms)
 Number     Number       Type             X           Y           Z
 ---------------------------------------------------------------------
      1          7           0        5.393357   -0.952520   -0.360972
      2          6           0        4.097221   -0.478347    0.154884
      3          6           0        2.899693   -1.374238   -0.209038
      4          6           0        1.567358   -0.822501    0.323985
      5          6           0        1.306633    0.619343   -0.150008
      6          6           0        0.001432    1.240990    0.385669
      7          6           0       -1.316556    0.530737   -0.001476
      8          6           0       -1.806283   -0.491261    1.041613
      9          6           0       -3.010711   -1.309300    0.516803
     10          6           0       -3.872311   -0.535660   -0.514894
     11          7           0       -5.253125   -1.032015   -0.647472
     12          6           0       -3.870629    0.957372   -0.169950
     13          6           0       -2.447931    1.562763   -0.249986
     14          6           0        2.512331    1.511475    0.205895
     15          6           0        3.842428    0.956686   -0.322996
     16          1           0        5.542983   -1.909787   -0.042812
     17          1           0        5.329260   -1.022405   -1.377334
     18          1           0        4.184208   -0.458928    1.251861
     19          1           0        3.068584   -2.389275    0.173507
     20          1           0        2.849404   -1.456550   -1.305269
     21          1           0        1.579165   -0.841518    1.424042
     22          1           0        0.750926   -1.481761    0.009918
     23          1           0        1.228587    0.592996   -1.249397
     24          1           0       -0.036176    2.273669    0.012739
     25          1           0        0.058755    1.324483    1.481512
     26          1           0       -1.140622   -0.009368   -0.943792
     27          1           0       -2.096759    0.062268    1.945376
     28          1           0       -1.000290   -1.164223    1.348322
     29          1           0       -2.665788   -2.246400    0.061400
     30          1           0       -3.654542   -1.594087    1.359500
     31          1           0       -3.413959   -0.650709   -1.506846
     32          1           0       -5.705111   -0.971611    0.265909
     33          1           0       -5.223670   -2.029933   -0.856144
     34          1           0       -4.274106    1.075808    0.845777
     35          1           0       -4.555906    1.490901   -0.837183
     36          1           0       -2.359908    2.370040    0.488411
     37          1           0       -2.290849    2.028297   -1.230788
     38          1           0        2.351366    2.524955   -0.182510
     39          1           0        2.570919    1.606260    1.300445
     40          1           0        3.828677    0.962382   -1.423608
     41          1           0        4.677169    1.597887   -0.016932
 ---------------------------------------------------------------------

 SCF Done:  E(RB3LYP) =  -620.597283416     A.U. after    1 cycles

 Excitation energies and oscillator strengths:

 Excited State   1:      Singlet-A      7.3919 eV  167.73 nm  f=0.0204  <S**2>=0.000
      58 -> 60        -0.31273
      58 -> 62        -0.20061
      59 -> 60         0.49292
      59 -> 62         0.29673
      59 -> 64        -0.10402
 This state for optimization and/or second-order correction.
 Total Energy, E(TD-HF/TD-DFT) =  -620.325634937
 Copying the excited state density for this state as the 1-particle RhoCI density.

 Excited State   2:      Singlet-A      7.4868 eV  165.60 nm  f=0.0234  <S**2>=0.000
      58 -> 61         0.55483
      59 -> 61         0.39590

 Excited State   3:      Singlet-A      7.9152 eV  156.64 nm  f=0.0182  <S**2>=0.000
      58 -> 62         0.11250
      58 -> 64        -0.17607
      58 -> 65        -0.12539
      59 -> 60         0.43723
      59 -> 62        -0.42595
      59 -> 64         0.15901
      59 -> 65         0.12627

 Excited State   4:      Singlet-A      7.9585 eV  155.79 nm  f=0.0158  <S**2>=0.000
      58 -> 60         0.54960
      58 -> 62        -0.32492
      59 -> 60         0.13739
      59 -> 64        -0.18673
      59 -> 65        -0.11996

 Excited State   5:      Singlet-A      8.0967 eV  153.13 nm  f=0.0120  <S**2>=0.000
      58 -> 63         0.16721
      58 -> 64         0.28467
      58 -> 65        -0.22863
      59 -> 61         0.10451
      59 -> 62        -0.10559
      59 -> 63         0.52335
      59 -> 64        -0.11583

 Excited State   6:      Singlet-A      8.1100 eV  152.88 nm  f=0.0304  <S**2>=0.000
      58 -> 63         0.50744
      59 -> 64         0.34339
      59 -> 65        -0.24255

 Excited State   7:      Singlet-A      8.3289 eV  148.86 nm  f=0.0033  <S**2>=0.000
      58 -> 60         0.27244
      58 -> 62         0.44216
      58 -> 64         0.13675
      58 -> 65         0.16904
      59 -> 60         0.16566
      59 -> 62         0.31928
      59 -> 64         0.10806
      59 -> 65         0.15543

 Excited State   8:      Singlet-A      8.4429 eV  146.85 nm  f=0.0002  <S**2>=0.000
      58 -> 61        -0.37818
      58 -> 63         0.11982
      59 -> 61         0.52916
      59 -> 63        -0.16208

 Excited State   9:      Singlet-A      8.5500 eV  145.01 nm  f=0.0087  <S**2>=0.000
      58 -> 61        -0.10583
      58 -> 62        -0.18487
      58 -> 63        -0.20897
      58 -> 64        -0.27738
      59 -> 61         0.15285
      59 -> 62         0.19833
      59 -> 63         0.27758
      59 -> 64         0.39060
      59 -> 65         0.12427

 Excited State  10:      Singlet-A      8.6805 eV  142.83 nm  f=0.0046  <S**2>=0.000
      58 -> 61        -0.12369
      58 -> 62        -0.18783
      58 -> 63        -0.21702
      58 -> 64         0.48579
      59 -> 62        -0.13007
      59 -> 63        -0.14609
      59 -> 64         0.31215

 The electronic state is 1-A.
 Alpha  occ. eigenvalues --  -14.30723 -14.30706 -10.20306 -10.20296 -10.17886
 Alpha  occ. eigenvalues --  -10.17851 -10.17322 -10.17296 -10.17268 -10.17229
 Alpha  occ. eigenvalues --  -10.17149 -10.17125 -10.17125 -10.17089 -10.17085
 Alpha  occ. eigenvalues --   -0.87995  -0.87916  -0.82344  -0.80314  -0.74653
 Alpha  occ. eigenvalues --   -0.73380  -0.72858  -0.70517  -0.64546  -0.60965
 Alpha  occ. eigenvalues --   -0.60361  -0.59063  -0.56823  -0.54951  -0.52425
 Alpha  occ. eigenvalues --   -0.48741  -0.47707  -0.46519  -0.46270  -0.44904
 Alpha  occ. eigenvalues --   -0.43422  -0.42787  -0.42321  -0.41594  -0.40107
 Alpha  occ. eigenvalues --   -0.39603  -0.37741  -0.37484  -0.36900  -0.36227
 Alpha  occ. eigenvalues --   -0.36110  -0.34761  -0.34155  -0.33898  -0.33523
 Alpha  occ. eigenvalues --   -0.32657  -0.32033  -0.30879  -0.29502  -0.29083
 Alpha  occ. eigenvalues --   -0.28563  -0.28414  -0.23361  -0.23196
 Alpha virt. eigenvalues --    0.07945   0.08970   0.09283   0.09716   0.10262
 Alpha virt. eigenvalues --    0.11031   0.12481   0.13722   0.14181   0.14738
 Alpha virt. eigenvalues --    0.15385   0.15616   0.16598   0.17041   0.17166

 Mulliken charges:
               1
     1  N   -0.638535
     2  C    0.056939
     3  C   -0.185760
     4  C   -0.169163
     5  C   -0.055275
     6  C   -0.184632
     7  C   -0.040484
     8  C   -0.181520
     9  C   -0.112177
    10  C    0.033208
    11  N   -0.140762
    12  C   -0.153226
    13  C   -0.197231
    14  C   -0.181992
    15  C   -0.170797
    16  H    0.245742
    17  H    0.242727
    18  H    0.086821
    19  H    0.084134
    20  H    0.084379
    21  H    0.084722
    22  H    0.072570
    23  H    0.077673
    24  H    0.086805
    25  H    0.085486
    26  H    0.067993
    27  H    0.085622
    28  H    0.095564
    29  H    0.005525
    30  H    0.045872
    31  H    0.063247
    32  H    0.068829
    33  H    0.064671
    34  H    0.058094
    35  H    0.070892
    36  H    0.098864
    37  H    0.094902
    38  H    0.087269
    39  H    0.088520
    40  H    0.086241
    41  H    0.088240
 Sum of Mulliken charges =  -0.00000

 Dipole moment (field-independent basis, Debye):
    X=             -2.2169    Y=             -0.5349    Z=             -0.8876  Tot=              2.4472
 Quadrupole moment (field-independent basis, Debye-Ang):
   XX=           -105.7538   YY=            -97.3233   ZZ=            -96.6513
   XY=             -5.1555   XZ=              0.0494   YZ=              0.3176

 Summary of Natural Population Analysis:

                                       Natural Population
                Natural  -----------------------------------------------
    Atom  No    Charge         Core      Valence    Rydberg      Total
 -----------------------------------------------------------------------
      N    1   -0.92416      1.99966     5.90910    0.01540     7.92416
      C    2   -0.05831      1.99920     4.04211    0.01699     6.05831
      C    3   -0.48060      1.99929     4.46891    0.01240     6.48060
      C    4   -0.46797      1.99929     4.45690    0.01178     6.46797
      C    5   -0.24882      1.99921     4.23628    0.01333     6.24882
      C    6   -0.45317      1.99928     4.43977    0.01412     6.45317
      C    7   -0.25856      1.99922     4.24580    0.01354     6.25856
      C    8   -0.46279      1.99928     4.44952    0.01399     6.46279
      C    9   -0.46145      1.99924     4.44640    0.01581     6.46145
      C   10   -0.13554      1.99920     4.11766    0.01869     6.13554
      N   11   -0.37901      1.99934     5.36003    0.01964     7.37901
      C   12   -0.48867      1.99928     4.47304    0.01635     6.48867
      C   13   -0.46586      1.99932     4.45351    0.01304     6.46586
      C   14   -0.46105      1.99930     4.44984    0.01190     6.46105
      C   15   -0.47184      1.99929     4.45961    0.01294     6.47184
      H   16    0.38650      0.00000     0.61065    0.00285     0.61350
      H   17    0.37963      0.00000     0.61725    0.00312     0.62037
      H   18    0.22942      0.00000     0.76777    0.00281     0.77058
      H   19    0.23882      0.00000     0.75898    0.00220     0.76118
      H   20    0.22584      0.00000     0.77132    0.00284     0.77416
      H   21    0.22664      0.00000     0.77058    0.00278     0.77336
      H   22    0.22456      0.00000     0.76600    0.00944     0.77544
      H   23    0.23335      0.00000     0.76345    0.00320     0.76665
      H   24    0.23692      0.00000     0.76099    0.00208     0.76308
      H   25    0.23022      0.00000     0.76750    0.00228     0.76978
      H   26    0.22221      0.00000     0.76812    0.00968     0.77779
      H   27    0.22564      0.00000     0.76629    0.00807     0.77436
      H   28    0.24210      0.00000     0.75080    0.00709     0.75790
      H   29    0.16716      0.00000     0.79099    0.04185     0.83284
      H   30    0.20737      0.00000     0.76514    0.02749     0.79263
      H   31    0.21202      0.00000     0.75376    0.03422     0.78798
      H   32    0.23734      0.00000     0.68981    0.07285     0.76266
      H   33    0.23173      0.00000     0.69295    0.07531     0.76827
      H   34    0.21287      0.00000     0.76581    0.02133     0.78713
      H   35    0.22976      0.00000     0.75740    0.01285     0.77024
      H   36    0.24055      0.00000     0.75735    0.00210     0.75945
      H   37    0.23686      0.00000     0.75915    0.00400     0.76314
      H   38    0.24104      0.00000     0.75709    0.00187     0.75896
      H   39    0.22847      0.00000     0.76913    0.00240     0.77153
      H   40    0.22640      0.00000     0.77115    0.00244     0.77360
      H   41    0.24414      0.00000     0.75357    0.00229     0.75586
 =======================================================================
   * Total *   -0.00021     29.98940    87.43147    0.57934   118.00021

 Normal termination of Gaussian 16 at Wed Jul 17 18:18:11 2024.
