 Gaussian 16, Revision A.03,

 -------------------------------------------------------
 # opt=CalcFc B3LYP/6-31G** SCRF=(Solvent=water) scf=xqc
 -------------------------------------------------------

 ----------------------------------
 KQIKKETXZQDHGE-FOCLMDBBSA-N_conf_1
 ----------------------------------
 Symbolic Z-matrix:
 Charge =  0 Multiplicity = 1

 SCF Done:  E(RB3LYP) =  -683.491718440     A.U. after   13 cycles
 SCF Done:  E(RB3LYP) =  -683.510336429     A.U. after   14 cycles
 SCF Done:  E(RB3LYP) =  -683.423670420     A.U. after   14 cycles
 SCF Done:  E(RB3LYP) =  -683.510281808     A.U. after   13 cycles
 SCF Done:  E(RB3LYP) =  -683.512289114     A.U. after   11 cycles
 SCF Done:  E(RB3LYP) =  -683.513254184     A.U. after   11 cycles
 SCF Done:  E(RB3LYP) =  -683.514346574     A.U. after   14 cycles
 SCF Done:  E(RB3LYP) =  -683.514637925     A.U. after   12 cycles
 SCF Done:  E(RB3LYP) =  -683.514717445     A.U. after   11 cycles
 SCF Done:  E(RB3LYP) =  -683.514721099     A.U. after    9 cycles
 SCF Done:  E(RB3LYP) =  -683.514721674     A.U. after    8 cycles
 SCF Done:  E(RB3LYP) =  -683.514721776     A.U. after    7 cycles
 SCF Done:  E(RB3LYP) =  -683.514721785     A.U. after    6 cycles
 Optimization completed.
    -- Stationary point found.
 Normal termination of Gaussian 16 at Thu Jul 18 07:19:40 2024.

 ----------------------------------------------------------------------
 # freq B3LYP/6-31G** SCRF=(Solvent=water) volume NMR pop=NPA density=c
 urrent Geom=AllCheck Guess=Read
 ----------------------------------------------------------------------

 Structure from the checkpoint file:  "KQIKKETXZQDHGE-FOCLMDBBSA-N_conf_1_1.chk"
 ----------------------------------
 KQIKKETXZQDHGE-FOCLMDBBSA-N_conf_1
 ----------------------------------
 Charge =  0 Multiplicity = 1

 SCF Done:  E(RB3LYP) =  -683.514721785     A.U. after    1 cycles

      1  N    Isotropic =   193.2595   Anisotropy =    69.2798

      2  C    Isotropic =    47.4719   Anisotropy =   164.4010

      3  C    Isotropic =    83.4009   Anisotropy =   127.3113

      4  C    Isotropic =    62.2802   Anisotropy =   158.1041

      5  C    Isotropic =    52.4241   Anisotropy =   141.5193

      6  N    Isotropic =  -216.7287   Anisotropy =   618.4692

      7  N    Isotropic =  -216.7240   Anisotropy =   618.4645

      8  C    Isotropic =    52.4228   Anisotropy =   141.5196

      9  C    Isotropic =    81.0723   Anisotropy =   161.2699

     10  C    Isotropic =    82.1328   Anisotropy =   127.4601

     11  C    Isotropic =    47.4722   Anisotropy =   164.4001

     12  N    Isotropic =   193.2610   Anisotropy =    69.2811

     13  C    Isotropic =    83.4001   Anisotropy =   127.3123

     14  C    Isotropic =    62.2826   Anisotropy =   158.1036

     15  C    Isotropic =    81.0729   Anisotropy =   161.2682

     16  C    Isotropic =    82.1331   Anisotropy =   127.4582

     17  H    Isotropic =    28.0856   Anisotropy =    11.8231

     18  H    Isotropic =    28.1181   Anisotropy =    11.9611

     19  H    Isotropic =    24.9708   Anisotropy =     5.6077

     20  H    Isotropic =    24.0325   Anisotropy =     4.8979

     21  H    Isotropic =    23.9262   Anisotropy =     6.2752

     22  H    Isotropic =    25.1028   Anisotropy =     6.0181

     23  H    Isotropic =    28.1183   Anisotropy =    11.9611

     24  H    Isotropic =    28.0858   Anisotropy =    11.8231

     25  H    Isotropic =    24.9708   Anisotropy =     5.6078

     26  H    Isotropic =    24.0325   Anisotropy =     4.8977

     27  H    Isotropic =    23.9264   Anisotropy =     6.2749

     28  H    Isotropic =    25.1028   Anisotropy =     6.0180

  Exact polarizability: 624.116  -5.258 209.903   0.742   0.025  63.863
 Approx polarizability: 670.588 -12.407 264.975   5.361   0.339  82.993

                      1                      2                      3
                      A                      A                      A
 Frequencies --     29.7072                44.2125                65.3399
 Red. masses --      3.6146                 5.4073                 5.1635
 Frc consts  --      0.0019                 0.0062                 0.0130
 IR Inten    --      2.0968                 5.9710                 8.9231

                      4                      5                      6
                      A                      A                      A
 Frequencies --     91.8966               190.5314               194.7839
 Red. masses --      5.4192                 5.8306                 5.4124
 Frc consts  --      0.0270                 0.1247                 0.1210
 IR Inten    --      0.0000                 0.0000                 4.4537

                      7                      8                      9
                      A                      A                      A
 Frequencies --    207.5170               266.4181               357.8705
 Red. masses --      7.1195                 5.1801                 4.7139
 Frc consts  --      0.1806                 0.2166                 0.3557
 IR Inten    --      0.0000                 0.0000                 0.0000

                     10                     11                     12
                      A                      A                      A
 Frequencies --    366.0220               371.4764               380.8979
 Red. masses --      1.2534                 1.0707                 2.1883
 Frc consts  --      0.0989                 0.0871                 0.1871
 IR Inten    --     39.9651                 0.0001                66.1620

                     13                     14                     15
                      A                      A                      A
 Frequencies --    404.6436               412.3830               431.7515
 Red. masses --      3.5063                 2.9829                 3.3516
 Frc consts  --      0.3383                 0.2989                 0.3681
 IR Inten    --    102.6710                 0.0000                 0.0002

                     16                     17                     18
                      A                      A                      A
 Frequencies --    432.2366               454.1667               485.6365
 Red. masses --      3.0657                 3.8491                 1.3971
 Frc consts  --      0.3375                 0.4678                 0.1941
 IR Inten    --    231.8514              1243.6892                 0.0023

                     19                     20                     21
                      A                      A                      A
 Frequencies --    495.0628               530.4716               535.7636
 Red. masses --      1.9104                 2.2826                 5.5593
 Frc consts  --      0.2759                 0.3784                 0.9402
 IR Inten    --    933.3374                 0.0003                13.6425

                     22                     23                     24
                      A                      A                      A
 Frequencies --    562.3392               614.6573               647.3607
 Red. masses --      2.3317                 5.2527                 6.8951
 Frc consts  --      0.4344                 1.1692                 1.7025
 IR Inten    --     85.9648                 0.0000                 0.0000

                     25                     26                     27
                      A                      A                      A
 Frequencies --    657.6248               727.1187               741.4230
 Red. masses --      6.8691                 4.3784                 4.7698
 Frc consts  --      1.7503                 1.3639                 1.5448
 IR Inten    --      5.3423                 0.0000                19.5591

                     28                     29                     30
                      A                      A                      A
 Frequencies --    790.1169               829.3679               829.7933
 Red. masses --      4.6766                 1.2824                 1.2612
 Frc consts  --      1.7201                 0.5197                 0.5117
 IR Inten    --      1.8274                 0.0000                 3.7181

                     31                     32                     33
                      A                      A                      A
 Frequencies --    835.5375               848.7382               851.9363
 Red. masses --      4.0101                 1.7588                 1.7653
 Frc consts  --      1.6494                 0.7465                 0.7549
 IR Inten    --      0.0000                 0.0000               132.8212

                     34                     35                     36
                      A                      A                      A
 Frequencies --    862.9135               936.5524               967.3172
 Red. masses --      5.8882                 7.2473                 1.2981
 Frc consts  --      2.5833                 3.7453                 0.7156
 IR Inten    --      5.5362                 0.0000                 0.0000

                     37                     38                     39
                      A                      A                      A
 Frequencies --    968.3403               985.2822               985.5257
 Red. masses --      1.3079                 1.3006                 1.3088
 Frc consts  --      0.7226                 0.7439                 0.7489
 IR Inten    --      1.3276                 0.0003                 1.1210

                     40                     41                     42
                      A                      A                      A
 Frequencies --   1017.5676              1018.0246              1076.6835
 Red. masses --      2.5494                 2.5918                 1.4252
 Frc consts  --      1.5553                 1.5826                 0.9734
 IR Inten    --      3.9845                 0.0002                 0.0059

                     43                     44                     45
                      A                      A                      A
 Frequencies --   1076.7774              1147.2286              1148.7319
 Red. masses --      1.4216                 1.1927                 1.1599
 Frc consts  --      0.9712                 0.9249                 0.9018
 IR Inten    --      8.7267                 0.0000                37.8186

                     46                     47                     48
                      A                      A                      A
 Frequencies --   1165.4257              1170.9064              1229.0155
 Red. masses --      1.5164                 1.2133                 2.2105
 Frc consts  --      1.2135                 0.9801                 1.9672
 IR Inten    --      0.0001               557.1965                 0.0000

                     49                     50                     51
                      A                      A                      A
 Frequencies --   1281.3640              1326.8690              1333.4741
 Red. masses --      3.2109                 2.0009                 2.1701
 Frc consts  --      3.1062                 2.0756                 2.2735
 IR Inten    --    135.2255               401.9503               445.1460

                     52                     53                     54
                      A                      A                      A
 Frequencies --   1333.7366              1337.5764              1377.4759
 Red. masses --      2.9416                 1.4936                 4.5455
 Frc consts  --      3.0830                 1.5744                 5.0815
 IR Inten    --      0.2398                 0.0000                18.3457

                     55                     56                     57
                      A                      A                      A
 Frequencies --   1381.0396              1463.4918              1487.0462
 Red. masses --      5.5401                 4.5995                 3.2892
 Frc consts  --      6.2256                 5.8042                 4.2854
 IR Inten    --      0.0000                 0.0000                10.7866

                     58                     59                     60
                      A                      A                      A
 Frequencies --   1511.1237              1547.8680              1548.4102
 Red. masses --      4.0812                 3.0609                 2.7668
 Frc consts  --      5.4909                 4.3209                 3.9084
 IR Inten    --      0.0000                 0.0006               270.5343

                     61                     62                     63
                      A                      A                      A
 Frequencies --   1611.8501              1616.5138              1648.5793
 Red. masses --      6.0681                 6.5327                 3.0441
 Frc consts  --      9.2887                10.0578                 4.8745
 IR Inten    --     95.8905                 0.0002               745.0027

                     64                     65                     66
                      A                      A                      A
 Frequencies --   1654.3797              1661.0757              1668.3693
 Red. masses --      1.4858                 1.4185                 2.8730
 Frc consts  --      2.3959                 2.3060                 4.7116
 IR Inten    --      0.0003              1202.5823                 0.0001

                     67                     68                     69
                      A                      A                      A
 Frequencies --   3180.3412              3180.5373              3183.6806
 Red. masses --      1.0897                 1.0897                 1.0880
 Frc consts  --      6.4937                 6.4944                 6.4975
 IR Inten    --     89.2793                 0.0044                58.5551

                     70                     71                     72
                      A                      A                      A
 Frequencies --   3183.7327              3201.4925              3201.8194
 Red. masses --      1.0880                 1.0944                 1.0945
 Frc consts  --      6.4974                 6.6091                 6.6110
 IR Inten    --      0.0553                54.0564                 0.0004

                     73                     74                     75
                      A                      A                      A
 Frequencies --   3220.1899              3220.2991              3577.2910
 Red. masses --      1.0918                 1.0919                 1.0476
 Frc consts  --      6.6707                 6.6713                 7.8987
 IR Inten    --      0.0418                15.7361               310.0281

                     76                     77                     78
                      A                      A                      A
 Frequencies --   3577.7127              3686.7421              3686.7466
 Red. masses --      1.0478                 1.1004                 1.1004
 Frc consts  --      7.9019                 8.8119                 8.8120
 IR Inten    --      0.0019                30.8335                41.2647

 - Thermochemistry -
 -------------------
 Temperature   298.150 Kelvin.  Pressure   1.00000 Atm.
 Atom     1 has atomic number  7 and mass  14.00307

 Molecular mass:   212.10620 amu.
 Principal axes and moments of inertia in atomic units:
                           1         2         3
     Eigenvalues --   682.04646********************
           X            1.00000   0.00082  -0.00216
           Y           -0.00082   1.00000  -0.00137
           Z            0.00216   0.00137   1.00000
 This molecule is an asymmetric top.
 Rotational symmetry number  1.
 Warning -- assumption of classical behavior for rotation
           may cause significant error
 Rotational temperatures (Kelvin)      0.12699     0.00855     0.00801
 Rotational constants (GHZ):           2.64607     0.17818     0.16697
 Zero-point vibrational energy     588155.5 (Joules/Mol)
                                  140.57254 (Kcal/Mol)
 Warning -- explicit consideration of  23 degrees of freedom as
           vibrations may cause significant error
 Vibrational temperatures:     42.74    63.61    94.01   132.22   274.13
          (Kelvin)            280.25   298.57   383.32   514.90   526.62
                              534.47   548.03   582.19   593.33   621.19
                              621.89   653.44   698.72   712.28   763.23
                              770.84   809.08   884.35   931.41   946.18
                             1046.16  1066.74  1136.80  1193.28  1193.89
                             1202.15  1221.14  1225.75  1241.54  1347.49
                             1391.75  1393.23  1417.60  1417.95  1464.05
                             1464.71  1549.11  1549.24  1650.61  1652.77
                             1676.79  1684.67  1768.28  1843.60  1909.07
                             1918.57  1918.95  1924.47  1981.88  1987.01
                             2105.64  2139.53  2174.17  2227.04  2227.82
                             2319.09  2325.80  2371.94  2380.28  2389.92
                             2400.41  4575.80  4576.08  4580.61  4580.68
                             4606.23  4606.70  4633.13  4633.29  5146.92
                             5147.53  5304.40  5304.41

 Zero-point correction=                           0.224017 (Hartree/Particle)
 Thermal correction to Energy=                    0.237750
 Thermal correction to Enthalpy=                  0.238695
 Thermal correction to Gibbs Free Energy=         0.182829
 Sum of electronic and zero-point Energies=           -683.290705
 Sum of electronic and thermal Energies=              -683.276971
 Sum of electronic and thermal Enthalpies=            -683.276027
 Sum of electronic and thermal Free Energies=         -683.331893

                     E (Thermal)             CV                S
                      KCal/Mol        Cal/Mol-Kelvin    Cal/Mol-Kelvin
 Total                  149.191             54.918            117.579
 Electronic               0.000              0.000              0.000
 Translational            0.889              2.981             41.959
 Rotational               0.889              2.981             32.679
 Vibrational            147.413             48.956             42.940
 Vibration     1          0.593              1.984              5.849
 Vibration     2          0.595              1.980              5.061
 Vibration     3          0.597              1.971              4.289
 Vibration     4          0.602              1.955              3.619
 Vibration     5          0.634              1.853              2.223
 Vibration     6          0.635              1.847              2.182
 Vibration     7          0.641              1.829              2.065
 Vibration     8          0.672              1.735              1.619
 Vibration     9          0.733              1.559              1.131
 Vibration    10          0.739              1.542              1.096
 Vibration    11          0.743              1.531              1.074
 Vibration    12          0.751              1.511              1.036
 Vibration    13          0.770              1.460              0.946
 Vibration    14          0.776              1.443              0.918
 Vibration    15          0.793              1.401              0.853
 Vibration    16          0.793              1.400              0.851
 Vibration    17          0.813              1.352              0.783
 Vibration    18          0.842              1.282              0.695
 Vibration    19          0.851              1.261              0.671
 Vibration    20          0.885              1.183              0.586
 Vibration    21          0.891              1.171              0.574
 Vibration    22          0.918              1.113              0.519
 Vibration    23          0.974              1.001              0.425

 Optimization completed.
    -- Stationary point found.
 Normal termination of Gaussian 16 at Thu Jul 18 07:31:42 2024.
 Gaussian 16:  ES64L-G16RevA.03 25-Dec-2016

 ----------------------------------------------------------------------
 # TD(NStates=10, Root=1) B3LYP/6-31G** SCRF=(Solvent=water) volume pop
 =NPA density=current Geom=AllCheck Guess=Read
 ----------------------------------------------------------------------

 Structure from the checkpoint file:  "KQIKKETXZQDHGE-FOCLMDBBSA-N_conf_1_2.chk"
 ----------------------------------
 KQIKKETXZQDHGE-FOCLMDBBSA-N_conf_1
 ----------------------------------
 Charge =  0 Multiplicity = 1

                         Standard orientation:
 ---------------------------------------------------------------------
 Center     Atomic      Atomic             Coordinates (Angstroms)
 Number     Number       Type             X           Y           Z
 ---------------------------------------------------------------------
      1          7           0        5.943004    0.231936    0.064690
      2          6           0        4.571909    0.071559    0.005179
      3          6           0        3.989894   -1.212713    0.002901
      4          6           0        2.609863   -1.356414    0.001665
      5          6           0        1.758769   -0.237974    0.002187
      6          7           0        0.378490   -0.510042   -0.001398
      7          7           0       -0.378495    0.510172    0.001501
      8          6           0       -1.758780    0.238065   -0.002155
      9          6           0       -2.340329   -1.046826   -0.003213
     10          6           0       -3.715653   -1.198592   -0.004773
     11          6           0       -4.571903   -0.071630   -0.005198
     12          7           0       -5.943000   -0.232067   -0.064716
     13          6           0       -3.989961    1.212672   -0.002617
     14          6           0       -2.609934    1.356456   -0.001372
     15          6           0        2.340394    1.046889    0.002893
     16          6           0        3.715723    1.198576    0.004436
     17          1           0        6.307990    1.121796   -0.246009
     18          1           0        6.504189   -0.551519   -0.240001
     19          1           0        4.630119   -2.090450    0.002242
     20          1           0        2.159852   -2.344736   -0.002840
     21          1           0       -1.691947   -1.915719    0.000192
     22          1           0       -4.152367   -2.193929   -0.005795
     23          1           0       -6.504199    0.551286    0.240211
     24          1           0       -6.307914   -1.122011    0.245822
     25          1           0       -4.630235    2.090373   -0.001734
     26          1           0       -2.159986    2.344806    0.003384
     27          1           0        1.692061    1.915817   -0.000772
     28          1           0        4.152498    2.193886    0.005176
 ---------------------------------------------------------------------

 SCF Done:  E(RB3LYP) =  -683.514721785     A.U. after    1 cycles

 Excitation energies and oscillator strengths:

 Excited State   1:      Singlet-A      2.7573 eV  449.66 nm  f=0.0001  <S**2>=0.000
      55 -> 57         0.70412
 This state for optimization and/or second-order correction.
 Total Energy, E(TD-HF/TD-DFT) =  -683.413394123
 Copying the excited state density for this state as the 1-particle RhoCI density.

 Excited State   2:      Singlet-A      2.7711 eV  447.42 nm  f=1.3843  <S**2>=0.000
      56 -> 57         0.70714

 Excited State   3:      Singlet-A      3.8880 eV  318.89 nm  f=0.0000  <S**2>=0.000
      54 -> 57         0.69412
      56 -> 60         0.11030

 Excited State   4:      Singlet-A      4.2445 eV  292.11 nm  f=0.0160  <S**2>=0.000
      53 -> 57         0.50712
      56 -> 58         0.47969

 Excited State   5:      Singlet-A      4.2569 eV  291.26 nm  f=0.0000  <S**2>=0.000
      52 -> 57         0.50331
      56 -> 59         0.48045

 Excited State   6:      Singlet-A      4.6292 eV  267.83 nm  f=0.3164  <S**2>=0.000
      53 -> 57        -0.48714
      56 -> 58         0.50570

 Excited State   7:      Singlet-A      4.6390 eV  267.27 nm  f=0.0000  <S**2>=0.000
      52 -> 57        -0.48714
      56 -> 59         0.50403

 Excited State   8:      Singlet-A      5.0177 eV  247.09 nm  f=0.0000  <S**2>=0.000
      55 -> 58         0.70650

 Excited State   9:      Singlet-A      5.0311 eV  246.43 nm  f=0.0000  <S**2>=0.000
      55 -> 59         0.70641

 Excited State  10:      Singlet-A      5.3816 eV  230.39 nm  f=0.0000  <S**2>=0.000
      54 -> 58         0.43758
      56 -> 60         0.53571

 The electronic state is 1-A.
 Alpha  occ. eigenvalues --  -14.36447 -14.36405 -14.34638 -14.34637 -10.23842
 Alpha  occ. eigenvalues --  -10.23842 -10.20715 -10.20715 -10.19308 -10.19308
 Alpha  occ. eigenvalues --  -10.19185 -10.19185 -10.18963 -10.18962 -10.18741
 Alpha  occ. eigenvalues --  -10.18741  -1.01418  -0.92433  -0.92397  -0.85649
 Alpha  occ. eigenvalues --   -0.83385  -0.77633  -0.74919  -0.74890  -0.71919
 Alpha  occ. eigenvalues --   -0.66347  -0.62053  -0.61861  -0.59746  -0.56450
 Alpha  occ. eigenvalues --   -0.52980  -0.52155  -0.51523  -0.51466  -0.49070
 Alpha  occ. eigenvalues --   -0.45039  -0.44109  -0.43896  -0.42500  -0.42252
 Alpha  occ. eigenvalues --   -0.42145  -0.41991  -0.40647  -0.39192  -0.38036
 Alpha  occ. eigenvalues --   -0.37596  -0.36693  -0.34090  -0.33854  -0.32637
 Alpha  occ. eigenvalues --   -0.29321  -0.25680  -0.25647  -0.22471  -0.22045
 Alpha  occ. eigenvalues --   -0.18700
 Alpha virt. eigenvalues --   -0.06896  -0.00344  -0.00290   0.02465   0.05735
 Alpha virt. eigenvalues --    0.09108   0.09294   0.11272   0.11398   0.12514
 Alpha virt. eigenvalues --    0.13057   0.16455   0.16833   0.17315   0.17887

 Mulliken charges:
               1
     1  N   -0.677554
     2  C    0.271360
     3  C   -0.140793
     4  C   -0.128539
     5  C    0.263922
     6  N   -0.302079
     7  N   -0.302093
     8  C    0.263916
     9  C   -0.108300
    10  C   -0.146219
    11  C    0.271353
    12  N   -0.677553
    13  C   -0.140792
    14  C   -0.128539
    15  C   -0.108298
    16  C   -0.146221
    17  H    0.281335
    18  H    0.281146
    19  H    0.097645
    20  H    0.102032
    21  H    0.103829
    22  H    0.102225
    23  H    0.281143
    24  H    0.281339
    25  H    0.097644
    26  H    0.102028
    27  H    0.103831
    28  H    0.102233
 Sum of Mulliken charges =   0.00000

 Dipole moment (field-independent basis, Debye):
    X=              0.0003    Y=             -0.0005    Z=             -0.0018  Tot=              0.0018
 Quadrupole moment (field-independent basis, Debye-Ang):
   XX=            -37.5641   YY=            -79.8115   ZZ=            -99.6441
   XY=              2.4393   XZ=            -14.3455   YZ=             -0.6629

 Summary of Natural Population Analysis:

                                       Natural Population
                Natural  -----------------------------------------------
    Atom  No    Charge         Core      Valence    Rydberg      Total
 -----------------------------------------------------------------------
      N    1   -0.84883      1.99949     5.83790    0.01143     7.84883
      C    2    0.15525      1.99902     3.82792    0.01782     5.84475
      C    3   -0.29155      1.99905     4.27980    0.01271     6.29155
      C    4   -0.23575      1.99907     4.22301    0.01367     6.23575
      C    5    0.05341      1.99886     3.92567    0.02205     5.94659
      N    6   -0.12154      1.99937     5.10030    0.02186     7.12154
      N    7   -0.12155      1.99937     5.10032    0.02186     7.12155
      C    8    0.05341      1.99886     3.92567    0.02205     5.94659
      C    9   -0.26679      1.99904     4.25436    0.01340     6.26679
      C   10   -0.27923      1.99905     4.26744    0.01274     6.27923
      C   11    0.15524      1.99902     3.82792    0.01782     5.84476
      N   12   -0.84883      1.99949     5.83790    0.01143     7.84883
      C   13   -0.29155      1.99905     4.27979    0.01271     6.29155
      C   14   -0.23575      1.99907     4.22301    0.01367     6.23575
      C   15   -0.26679      1.99904     4.25436    0.01340     6.26679
      C   16   -0.27923      1.99905     4.26744    0.01274     6.27923
      H   17    0.41835      0.00000     0.57934    0.00231     0.58165
      H   18    0.41833      0.00000     0.57935    0.00232     0.58167
      H   19    0.24634      0.00000     0.75218    0.00148     0.75366
      H   20    0.25006      0.00000     0.74838    0.00157     0.74994
      H   21    0.25295      0.00000     0.74546    0.00158     0.74705
      H   22    0.24902      0.00000     0.74950    0.00149     0.75098
      H   23    0.41832      0.00000     0.57935    0.00232     0.58168
      H   24    0.41835      0.00000     0.57934    0.00231     0.58165
      H   25    0.24634      0.00000     0.75218    0.00148     0.75366
      H   26    0.25005      0.00000     0.74838    0.00157     0.74995
      H   27    0.25295      0.00000     0.74546    0.00158     0.74705
      H   28    0.24902      0.00000     0.74949    0.00149     0.75098
 =======================================================================
   * Total *   -0.00000     31.98590    79.74124    0.27286   112.00000

 Normal termination of Gaussian 16 at Thu Jul 18 07:44:31 2024.
