 Gaussian 16, Revision A.03,

 -------------------------------------------------------
 # opt=CalcFc B3LYP/6-31G** SCRF=(Solvent=water) scf=xqc
 -------------------------------------------------------

 ----------------------------------
 KQIKKETXZQDHGE-FOCLMDBBSA-N_conf_3
 ----------------------------------
 Symbolic Z-matrix:
 Charge =  0 Multiplicity = 1

 SCF Done:  E(RB3LYP) =  -683.491010656     A.U. after   12 cycles
 SCF Done:  E(RB3LYP) =  -683.507774138     A.U. after   14 cycles
 SCF Done:  E(RB3LYP) =  -683.513467421     A.U. after   14 cycles
 SCF Done:  E(RB3LYP) =  -683.514104745     A.U. after   11 cycles
 SCF Done:  E(RB3LYP) =  -683.514150643     A.U. after   10 cycles
 SCF Done:  E(RB3LYP) =  -683.514162721     A.U. after    9 cycles
 SCF Done:  E(RB3LYP) =  -683.514174232     A.U. after    9 cycles
 SCF Done:  E(RB3LYP) =  -683.514203146     A.U. after   10 cycles
 SCF Done:  E(RB3LYP) =  -683.514254470     A.U. after   10 cycles
 SCF Done:  E(RB3LYP) =  -683.514333126     A.U. after   10 cycles
 SCF Done:  E(RB3LYP) =  -683.514450773     A.U. after   11 cycles
 SCF Done:  E(RB3LYP) =  -683.514574291     A.U. after   11 cycles
 SCF Done:  E(RB3LYP) =  -683.514664819     A.U. after   10 cycles
 SCF Done:  E(RB3LYP) =  -683.514713162     A.U. after   10 cycles
 SCF Done:  E(RB3LYP) =  -683.514720669     A.U. after   10 cycles
 SCF Done:  E(RB3LYP) =  -683.514720745     A.U. after    7 cycles
 Optimization completed.
    -- Stationary point found.
 Normal termination of Gaussian 16 at Thu Jul 18 07:48:31 2024.

 ----------------------------------------------------------------------
 # freq B3LYP/6-31G** SCRF=(Solvent=water) volume NMR pop=NPA density=c
 urrent Geom=AllCheck Guess=Read
 ----------------------------------------------------------------------

 Structure from the checkpoint file:  "KQIKKETXZQDHGE-FOCLMDBBSA-N_conf_3_1.chk"
 ----------------------------------
 KQIKKETXZQDHGE-FOCLMDBBSA-N_conf_3
 ----------------------------------
 Charge =  0 Multiplicity = 1

 SCF Done:  E(RB3LYP) =  -683.514720745     A.U. after    1 cycles

      1  N    Isotropic =   193.2576   Anisotropy =    69.2886

      2  C    Isotropic =    47.4692   Anisotropy =   164.4064

      3  C    Isotropic =    82.1308   Anisotropy =   127.4557

      4  C    Isotropic =    81.0759   Anisotropy =   161.2640

      5  C    Isotropic =    52.4201   Anisotropy =   141.5222

      6  N    Isotropic =  -216.7732   Anisotropy =   618.5153

      7  N    Isotropic =  -216.7638   Anisotropy =   618.5056

      8  C    Isotropic =    52.4186   Anisotropy =   141.5225

      9  C    Isotropic =    81.0745   Anisotropy =   161.2660

     10  C    Isotropic =    82.1284   Anisotropy =   127.4592

     11  C    Isotropic =    47.4692   Anisotropy =   164.4052

     12  N    Isotropic =   193.2606   Anisotropy =    69.2909

     13  C    Isotropic =    83.3969   Anisotropy =   127.3194

     14  C    Isotropic =    62.2845   Anisotropy =   158.1041

     15  C    Isotropic =    62.2802   Anisotropy =   158.1051

     16  C    Isotropic =    83.3983   Anisotropy =   127.3165

     17  H    Isotropic =    28.0862   Anisotropy =    11.8182

     18  H    Isotropic =    28.1184   Anisotropy =    11.9579

     19  H    Isotropic =    25.1028   Anisotropy =     6.0180

     20  H    Isotropic =    23.9267   Anisotropy =     6.2741

     21  H    Isotropic =    23.9265   Anisotropy =     6.2747

     22  H    Isotropic =    25.1027   Anisotropy =     6.0183

     23  H    Isotropic =    28.1187   Anisotropy =    11.9578

     24  H    Isotropic =    28.0865   Anisotropy =    11.8182

     25  H    Isotropic =    24.9705   Anisotropy =     5.6076

     26  H    Isotropic =    24.0323   Anisotropy =     4.8970

     27  H    Isotropic =    24.0323   Anisotropy =     4.8973

     28  H    Isotropic =    24.9706   Anisotropy =     5.6075

  Exact polarizability: 624.099  -5.257 209.898   0.001  -0.000  63.870
 Approx polarizability: 670.578 -12.373 264.973   0.000   0.000  82.971

                      1                      2                      3
                      A                      A                      A
 Frequencies --     29.8090                44.2547                65.2810
 Red. masses --      3.6139                 5.3982                 5.1759
 Frc consts  --      0.0019                 0.0062                 0.0130
 IR Inten    --      1.0422                 5.4805                 8.6205

                      4                      5                      6
                      A                      A                      A
 Frequencies --     91.9866               190.3564               194.9937
 Red. masses --      5.4105                 5.8898                 5.3682
 Frc consts  --      0.0270                 0.1257                 0.1203
 IR Inten    --      1.1884                 0.0221                 0.6416

                      7                      8                      9
                      A                      A                      A
 Frequencies --    207.5736               266.3593               357.7253
 Red. masses --      7.1026                 5.1790                 4.4681
 Frc consts  --      0.1803                 0.2165                 0.3369
 IR Inten    --      3.1173                 0.0094                21.8876

                     10                     11                     12
                      A                      A                      A
 Frequencies --    366.4213               370.1315               381.4989
 Red. masses --      1.3317                 1.0498                 2.0780
 Frc consts  --      0.1053                 0.0847                 0.1782
 IR Inten    --     45.1222                 0.7751                44.7300

                     13                     14                     15
                      A                      A                      A
 Frequencies --    404.5008               412.6194               431.6476
 Red. masses --      3.7406                 2.9798                 3.3368
 Frc consts  --      0.3606                 0.2989                 0.3663
 IR Inten    --     26.9285                 1.4186                10.4046

                     16                     17                     18
                      A                      A                      A
 Frequencies --    433.4894               450.6319               489.1521
 Red. masses --      3.3885                 2.7178                 2.0032
 Frc consts  --      0.3752                 0.3252                 0.2824
 IR Inten    --     23.5922              1412.5253               410.7075

                     19                     20                     21
                      A                      A                      A
 Frequencies --    495.8009               527.5686               536.6341
 Red. masses --      1.4594                 2.5379                 4.7760
 Frc consts  --      0.2114                 0.4162                 0.8103
 IR Inten    --    390.8540               297.7911                22.4445

                     22                     23                     24
                      A                      A                      A
 Frequencies --    562.8296               614.7642               647.3672
 Red. masses --      2.3374                 5.2125                 6.8950
 Frc consts  --      0.4362                 1.1607                 1.7025
 IR Inten    --      0.0887                 5.8612                 0.0321

                     25                     26                     27
                      A                      A                      A
 Frequencies --    657.6301               726.9125               741.6419
 Red. masses --      6.8691                 4.3851                 4.7753
 Frc consts  --      1.7503                 1.3652                 1.5475
 IR Inten    --      5.3307                11.5633                10.3377

                     28                     29                     30
                      A                      A                      A
 Frequencies --    790.0469               829.5310               829.7978
 Red. masses --      4.6562                 1.2681                 1.2681
 Frc consts  --      1.7123                 0.5141                 0.5144
 IR Inten    --      1.2765                 0.6634                 3.3599

                     31                     32                     33
                      A                      A                      A
 Frequencies --    835.7530               847.7743               852.8179
 Red. masses --      4.3420                 1.6843                 1.7846
 Frc consts  --      1.7869                 0.7132                 0.7647
 IR Inten    --      1.1134                 5.0320               133.0243

                     34                     35                     36
                      A                      A                      A
 Frequencies --    862.8184               936.5438               967.3497
 Red. masses --      6.0637                 7.2466                 1.2980
 Frc consts  --      2.6597                 3.7449                 0.7157
 IR Inten    --      0.6638                 0.0236                 0.0390

                     37                     38                     39
                      A                      A                      A
 Frequencies --    968.3719               985.2636               985.5180
 Red. masses --      1.3078                 1.3006                 1.3090
 Frc consts  --      0.7226                 0.7439                 0.7491
 IR Inten    --      1.2829                 0.0632                 1.0618

                     40                     41                     42
                      A                      A                      A
 Frequencies --   1017.5466              1018.0053              1076.7571
 Red. masses --      2.5491                 2.5915                 1.4253
 Frc consts  --      1.5551                 1.5824                 0.9736
 IR Inten    --      3.7462                 0.3142                 0.0516

                     43                     44                     45
                      A                      A                      A
 Frequencies --   1076.8492              1147.2507              1148.7541
 Red. masses --      1.4217                 1.1928                 1.1599
 Frc consts  --      0.9713                 0.9250                 0.9018
 IR Inten    --      8.7001                 0.0275                37.8048

                     46                     47                     48
                      A                      A                      A
 Frequencies --   1165.3992              1170.8997              1228.9935
 Red. masses --      1.5169                 1.2134                 2.2092
 Frc consts  --      1.2138                 0.9802                 1.9660
 IR Inten    --      0.3399               556.3147                 0.0701

                     49                     50                     51
                      A                      A                      A
 Frequencies --   1281.3105              1326.8651              1333.4826
 Red. masses --      3.2103                 2.0024                 2.1702
 Frc consts  --      3.1053                 2.0770                 2.2736
 IR Inten    --    135.0154               402.6501               442.4484

                     52                     53                     54
                      A                      A                      A
 Frequencies --   1333.7269              1337.5783              1377.4695
 Red. masses --      2.9366                 1.4943                 4.5437
 Frc consts  --      3.0777                 1.5752                 5.0795
 IR Inten    --      1.6232                 0.0016                18.2607

                     55                     56                     57
                      A                      A                      A
 Frequencies --   1381.0345              1463.4189              1487.0467
 Red. masses --      5.5375                 4.6043                 3.2893
 Frc consts  --      6.2226                 5.8096                 4.2855
 IR Inten    --      0.0029                 0.0350                10.7666

                     58                     59                     60
                      A                      A                      A
 Frequencies --   1511.0813              1547.8511              1548.4056
 Red. masses --      4.0813                 3.0592                 2.7668
 Frc consts  --      5.4907                 4.3183                 3.9084
 IR Inten    --      0.0034                 0.0051               270.6396

                     61                     62                     63
                      A                      A                      A
 Frequencies --   1611.8505              1616.5126              1648.5878
 Red. masses --      6.0674                 6.5316                 3.0479
 Frc consts  --      9.2876                10.0560                 4.8806
 IR Inten    --     95.7731                 0.0033               743.6987

                     64                     65                     66
                      A                      A                      A
 Frequencies --   1654.4069              1661.0966              1668.3731
 Red. masses --      1.4871                 1.4175                 2.8669
 Frc consts  --      2.3982                 2.3044                 4.7017
 IR Inten    --     14.9156              1179.6424                 8.4167

                     67                     68                     69
                      A                      A                      A
 Frequencies --   3180.3475              3180.5439              3183.6665
 Red. masses --      1.0897                 1.0897                 1.0880
 Frc consts  --      6.4938                 6.4944                 6.4975
 IR Inten    --     89.4228                 0.0132                58.5050

                     70                     71                     72
                      A                      A                      A
 Frequencies --   3183.7188              3201.4935              3201.8203
 Red. masses --      1.0880                 1.0944                 1.0945
 Frc consts  --      6.4974                 6.6091                 6.6110
 IR Inten    --      0.1393                53.9998                 0.0050

                     73                     74                     75
                      A                      A                      A
 Frequencies --   3220.2194              3220.3312              3577.2229
 Red. masses --      1.0918                 1.0919                 1.0476
 Frc consts  --      6.6708                 6.6714                 7.8984
 IR Inten    --      0.2045                15.5691               296.4080

                     76                     77                     78
                      A                      A                      A
 Frequencies --   3577.6464              3686.6511              3686.6739
 Red. masses --      1.0478                 1.1004                 1.1004
 Frc consts  --      7.9016                 8.8115                 8.8116
 IR Inten    --     13.7057                36.6843                35.4798

 - Thermochemistry -
 -------------------
 Temperature   298.150 Kelvin.  Pressure   1.00000 Atm.
 Atom     1 has atomic number  7 and mass  14.00307

 Molecular mass:   212.10620 amu.
 Principal axes and moments of inertia in atomic units:
                           1         2         3
     Eigenvalues --   682.05330********************
           X            1.00000   0.00081   0.00000
           Y           -0.00081   1.00000  -0.00000
           Z           -0.00000   0.00000   1.00000
 This molecule is an asymmetric top.
 Rotational symmetry number  1.
 Warning -- assumption of classical behavior for rotation
           may cause significant error
 Rotational temperatures (Kelvin)      0.12699     0.00855     0.00801
 Rotational constants (GHZ):           2.64604     0.17817     0.16697
 Zero-point vibrational energy     588156.3 (Joules/Mol)
                                  140.57273 (Kcal/Mol)
 Warning -- explicit consideration of  23 degrees of freedom as
           vibrations may cause significant error
 Vibrational temperatures:     42.89    63.67    93.92   132.35   273.88
          (Kelvin)            280.55   298.65   383.23   514.69   527.20
                              532.54   548.89   581.99   593.67   621.04
                              623.69   648.36   703.78   713.35   759.05
                              772.10   809.79   884.51   931.42   946.18
                             1045.87  1067.06  1136.70  1193.51  1193.89
                             1202.46  1219.76  1227.01  1241.40  1347.48
                             1391.80  1393.27  1417.57  1417.94  1464.02
                             1464.68  1549.21  1549.35  1650.64  1652.80
                             1676.75  1684.66  1768.25  1843.52  1909.06
                             1918.58  1918.94  1924.48  1981.87  1987.00
                             2105.53  2139.53  2174.11  2227.01  2227.81
                             2319.09  2325.80  2371.95  2380.32  2389.95
                             2400.42  4575.81  4576.09  4580.59  4580.66
                             4606.24  4606.71  4633.18  4633.34  5146.83
                             5147.44  5304.27  5304.30

 Zero-point correction=                           0.224017 (Hartree/Particle)
 Thermal correction to Energy=                    0.237750
 Thermal correction to Enthalpy=                  0.238695
 Thermal correction to Gibbs Free Energy=         0.182833
 Sum of electronic and zero-point Energies=           -683.290704
 Sum of electronic and thermal Energies=              -683.276970
 Sum of electronic and thermal Enthalpies=            -683.276026
 Sum of electronic and thermal Free Energies=         -683.331888

                     E (Thermal)             CV                S
                      KCal/Mol        Cal/Mol-Kelvin    Cal/Mol-Kelvin
 Total                  149.191             54.917            117.571
 Electronic               0.000              0.000              0.000
 Translational            0.889              2.981             41.959
 Rotational               0.889              2.981             32.679
 Vibrational            147.413             48.956             42.932
 Vibration     1          0.594              1.984              5.842
 Vibration     2          0.595              1.980              5.059
 Vibration     3          0.597              1.971              4.291
 Vibration     4          0.602              1.955              3.617
 Vibration     5          0.634              1.853              2.224
 Vibration     6          0.636              1.847              2.180
 Vibration     7          0.641              1.829              2.065
 Vibration     8          0.672              1.735              1.620
 Vibration     9          0.733              1.559              1.132
 Vibration    10          0.739              1.541              1.095
 Vibration    11          0.742              1.534              1.079
 Vibration    12          0.751              1.510              1.033
 Vibration    13          0.770              1.460              0.946
 Vibration    14          0.776              1.443              0.917
 Vibration    15          0.793              1.401              0.853
 Vibration    16          0.794              1.397              0.847
 Vibration    17          0.809              1.359              0.794
 Vibration    18          0.845              1.274              0.686
 Vibration    19          0.851              1.259              0.669
 Vibration    20          0.883              1.189              0.593
 Vibration    21          0.892              1.169              0.573
 Vibration    22          0.919              1.112              0.518
 Vibration    23          0.974              1.001              0.425

 Optimization completed.
    -- Stationary point found.
 Normal termination of Gaussian 16 at Thu Jul 18 08:02:20 2024.
 Gaussian 16:  ES64L-G16RevA.03 25-Dec-2016

 ----------------------------------------------------------------------
 # TD(NStates=10, Root=1) B3LYP/6-31G** SCRF=(Solvent=water) volume pop
 =NPA density=current Geom=AllCheck Guess=Read
 ----------------------------------------------------------------------

 Structure from the checkpoint file:  "KQIKKETXZQDHGE-FOCLMDBBSA-N_conf_3_2.chk"
 ----------------------------------
 KQIKKETXZQDHGE-FOCLMDBBSA-N_conf_3
 ----------------------------------
 Charge =  0 Multiplicity = 1

                         Standard orientation:
 ---------------------------------------------------------------------
 Center     Atomic      Atomic             Coordinates (Angstroms)
 Number     Number       Type             X           Y           Z
 ---------------------------------------------------------------------
      1          7           0        5.943149    0.232364    0.057020
      2          6           0        4.571957    0.071574    0.000791
      3          6           0        3.715775    1.198569   -0.006500
      4          6           0        2.340450    1.046900   -0.004871
      5          6           0        1.758822   -0.237932    0.004239
      6          7           0        0.378518   -0.510013    0.004740
      7          7           0       -0.378517    0.510201    0.004902
      8          6           0       -1.758831    0.238073    0.004303
      9          6           0       -2.340351   -1.046801   -0.004775
     10          6           0       -3.715672   -1.198587   -0.006421
     11          6           0       -4.571955   -0.071675    0.000759
     12          7           0       -5.943154   -0.232586    0.056942
     13          6           0       -3.990036    1.212623    0.008275
     14          6           0       -2.610012    1.356428    0.010112
     15          6           0        2.609909   -1.356369    0.010005
     16          6           0        3.989935   -1.212684    0.008295
     17          1           0        6.307536    1.120051   -0.260526
     18          1           0        6.503797   -0.553137   -0.243369
     19          1           0        4.152567    2.193846   -0.013505
     20          1           0        1.692110    1.915784   -0.013655
     21          1           0       -1.691957   -1.915648   -0.013483
     22          1           0       -4.152372   -2.193905   -0.013328
     23          1           0       -6.503818    0.552847   -0.243599
     24          1           0       -6.307409   -1.120303   -0.260675
     25          1           0       -4.630313    2.090311    0.012758
     26          1           0       -2.160084    2.344793    0.013116
     27          1           0        2.159887   -2.344692    0.012948
     28          1           0        4.630146   -2.090419    0.012822
 ---------------------------------------------------------------------

 SCF Done:  E(RB3LYP) =  -683.514720745     A.U. after    1 cycles

 Excitation energies and oscillator strengths:

 Excited State   1:      Singlet-A      2.7565 eV  449.78 nm  f=0.0509  <S**2>=0.000
      55 -> 57         0.69058
      56 -> 57        -0.13814
 This state for optimization and/or second-order correction.
 Total Energy, E(TD-HF/TD-DFT) =  -683.413419699
 Copying the excited state density for this state as the 1-particle RhoCI density.

 Excited State   2:      Singlet-A      2.7717 eV  447.32 nm  f=1.3335  <S**2>=0.000
      55 -> 57         0.13756
      56 -> 57         0.69354

 Excited State   3:      Singlet-A      3.8880 eV  318.89 nm  f=0.0001  <S**2>=0.000
      54 -> 57         0.69412
      56 -> 60         0.11029

 Excited State   4:      Singlet-A      4.2445 eV  292.10 nm  f=0.0160  <S**2>=0.000
      53 -> 57         0.50729
      56 -> 58         0.47952

 Excited State   5:      Singlet-A      4.2569 eV  291.25 nm  f=0.0000  <S**2>=0.000
      52 -> 57         0.50349
      56 -> 59         0.48026

 Excited State   6:      Singlet-A      4.6292 eV  267.83 nm  f=0.3164  <S**2>=0.000
      53 -> 57        -0.48697
      56 -> 58         0.50586

 Excited State   7:      Singlet-A      4.6390 eV  267.26 nm  f=0.0000  <S**2>=0.000
      52 -> 57        -0.48696
      56 -> 59         0.50421

 Excited State   8:      Singlet-A      5.0177 eV  247.09 nm  f=0.0001  <S**2>=0.000
      55 -> 58         0.70650

 Excited State   9:      Singlet-A      5.0311 eV  246.43 nm  f=0.0000  <S**2>=0.000
      55 -> 59         0.70640

 Excited State  10:      Singlet-A      5.3817 eV  230.38 nm  f=0.0000  <S**2>=0.000
      54 -> 58         0.43769
      56 -> 60         0.53560

 The electronic state is 1-A.
 Alpha  occ. eigenvalues --  -14.36448 -14.36406 -14.34638 -14.34637 -10.23842
 Alpha  occ. eigenvalues --  -10.23842 -10.20716 -10.20716 -10.19308 -10.19308
 Alpha  occ. eigenvalues --  -10.19186 -10.19185 -10.18963 -10.18963 -10.18741
 Alpha  occ. eigenvalues --  -10.18741  -1.01417  -0.92433  -0.92397  -0.85649
 Alpha  occ. eigenvalues --   -0.83386  -0.77633  -0.74919  -0.74890  -0.71919
 Alpha  occ. eigenvalues --   -0.66347  -0.62053  -0.61860  -0.59746  -0.56450
 Alpha  occ. eigenvalues --   -0.52980  -0.52154  -0.51522  -0.51465  -0.49070
 Alpha  occ. eigenvalues --   -0.45039  -0.44109  -0.43896  -0.42528  -0.42247
 Alpha  occ. eigenvalues --   -0.42114  -0.41976  -0.40720  -0.38890  -0.38516
 Alpha  occ. eigenvalues --   -0.37289  -0.36772  -0.34087  -0.33856  -0.32639
 Alpha  occ. eigenvalues --   -0.29321  -0.25681  -0.25648  -0.22472  -0.22045
 Alpha  occ. eigenvalues --   -0.18700
 Alpha virt. eigenvalues --   -0.06896  -0.00345  -0.00290   0.02464   0.05733
 Alpha virt. eigenvalues --    0.09192   0.09208   0.11268   0.11407   0.12515
 Alpha virt. eigenvalues --    0.13056   0.16457   0.16789   0.17398   0.17895

 Mulliken charges:
               1
     1  N   -0.676101
     2  C    0.271599
     3  C   -0.145719
     4  C   -0.108222
     5  C    0.263684
     6  N   -0.306511
     7  N   -0.306521
     8  C    0.263677
     9  C   -0.108224
    10  C   -0.145718
    11  C    0.271578
    12  N   -0.676100
    13  C   -0.140268
    14  C   -0.127816
    15  C   -0.127816
    16  C   -0.140268
    17  H    0.281840
    18  H    0.281715
    19  H    0.102476
    20  H    0.103525
    21  H    0.103525
    22  H    0.102472
    23  H    0.281710
    24  H    0.281835
    25  H    0.098062
    26  H    0.101761
    27  H    0.101763
    28  H    0.098063
 Sum of Mulliken charges =  -0.00000

 Dipole moment (field-independent basis, Debye):
    X=              0.0012    Y=             -0.0003    Z=             -2.2736  Tot=              2.2736
 Quadrupole moment (field-independent basis, Debye-Ang):
   XX=            -36.2762   YY=            -79.8871   ZZ=            -99.5531
   XY=              2.3441   XZ=              0.0025   YZ=             -0.0000

 Summary of Natural Population Analysis:

                                       Natural Population
                Natural  -----------------------------------------------
    Atom  No    Charge         Core      Valence    Rydberg      Total
 -----------------------------------------------------------------------
      N    1   -0.84676      1.99949     5.83583    0.01144     7.84676
      C    2    0.15598      1.99902     3.82717    0.01783     5.84402
      C    3   -0.27868      1.99905     4.26688    0.01275     6.27868
      C    4   -0.26662      1.99904     4.25416    0.01343     6.26662
      C    5    0.05671      1.99887     3.92219    0.02223     5.94329
      N    6   -0.13034      1.99938     5.10878    0.02218     7.13034
      N    7   -0.13035      1.99938     5.10879    0.02218     7.13035
      C    8    0.05670      1.99887     3.92219    0.02223     5.94330
      C    9   -0.26663      1.99904     4.25416    0.01343     6.26663
      C   10   -0.27867      1.99905     4.26688    0.01275     6.27867
      C   11    0.15597      1.99902     3.82719    0.01783     5.84403
      N   12   -0.84678      1.99949     5.83585    0.01144     7.84678
      C   13   -0.29083      1.99905     4.27907    0.01272     6.29083
      C   14   -0.23539      1.99907     4.22262    0.01370     6.23539
      C   15   -0.23538      1.99907     4.22262    0.01370     6.23538
      C   16   -0.29084      1.99905     4.27907    0.01272     6.29084
      H   17    0.41862      0.00000     0.57906    0.00232     0.58138
      H   18    0.41867      0.00000     0.57900    0.00233     0.58133
      H   19    0.24903      0.00000     0.74948    0.00149     0.75097
      H   20    0.25306      0.00000     0.74528    0.00165     0.74694
      H   21    0.25306      0.00000     0.74528    0.00165     0.74694
      H   22    0.24903      0.00000     0.74948    0.00149     0.75097
      H   23    0.41867      0.00000     0.57900    0.00233     0.58133
      H   24    0.41861      0.00000     0.57907    0.00232     0.58139
      H   25    0.24650      0.00000     0.75202    0.00148     0.75350
      H   26    0.25007      0.00000     0.74831    0.00161     0.74993
      H   27    0.25007      0.00000     0.74831    0.00161     0.74993
      H   28    0.24650      0.00000     0.75202    0.00148     0.75350
 =======================================================================
   * Total *    0.00000     31.98591    79.73978    0.27431   112.00000

 Normal termination of Gaussian 16 at Thu Jul 18 08:17:34 2024.
