 Gaussian 16, Revision A.03,

 -------------------------------------------------------
 # opt=CalcFc B3LYP/6-31G** SCRF=(Solvent=water) scf=xqc
 -------------------------------------------------------

 ----------------------------------
 KQIKKETXZQDHGE-FOCLMDBBSA-N_conf_2
 ----------------------------------
 Symbolic Z-matrix:
 Charge =  0 Multiplicity = 1

 SCF Done:  E(RB3LYP) =  -683.491718229     A.U. after   13 cycles
 SCF Done:  E(RB3LYP) =  -683.510334224     A.U. after   14 cycles
 SCF Done:  E(RB3LYP) =  -683.423671193     A.U. after   14 cycles
 SCF Done:  E(RB3LYP) =  -683.510294241     A.U. after   13 cycles
 SCF Done:  E(RB3LYP) =  -683.512293333     A.U. after   11 cycles
 SCF Done:  E(RB3LYP) =  -683.513260895     A.U. after   11 cycles
 SCF Done:  E(RB3LYP) =  -683.514350487     A.U. after   14 cycles
 SCF Done:  E(RB3LYP) =  -683.514639455     A.U. after   12 cycles
 SCF Done:  E(RB3LYP) =  -683.514717524     A.U. after   11 cycles
 SCF Done:  E(RB3LYP) =  -683.514721111     A.U. after    9 cycles
 SCF Done:  E(RB3LYP) =  -683.514721676     A.U. after    8 cycles
 SCF Done:  E(RB3LYP) =  -683.514721776     A.U. after    7 cycles
 Optimization completed.
    -- Stationary point found.
 Normal termination of Gaussian 16 at Thu Jul 18 07:20:22 2024.

 ----------------------------------------------------------------------
 # freq B3LYP/6-31G** SCRF=(Solvent=water) volume NMR pop=NPA density=c
 urrent Geom=AllCheck Guess=Read
 ----------------------------------------------------------------------

 Structure from the checkpoint file:  "KQIKKETXZQDHGE-FOCLMDBBSA-N_conf_2_1.chk"
 ----------------------------------
 KQIKKETXZQDHGE-FOCLMDBBSA-N_conf_2
 ----------------------------------
 Charge =  0 Multiplicity = 1

 SCF Done:  E(RB3LYP) =  -683.514721776     A.U. after    1 cycles

      1  N    Isotropic =   193.2602   Anisotropy =    69.2808

      2  C    Isotropic =    47.4719   Anisotropy =   164.4012

      3  C    Isotropic =    83.3994   Anisotropy =   127.3129

      4  C    Isotropic =    62.2847   Anisotropy =   158.1026

      5  C    Isotropic =    52.4234   Anisotropy =   141.5220

      6  N    Isotropic =  -216.7147   Anisotropy =   618.4664

      7  N    Isotropic =  -216.7103   Anisotropy =   618.4785

      8  C    Isotropic =    52.4244   Anisotropy =   141.5204

      9  C    Isotropic =    81.0686   Anisotropy =   161.2744

     10  C    Isotropic =    82.1316   Anisotropy =   127.4620

     11  C    Isotropic =    47.4700   Anisotropy =   164.4028

     12  N    Isotropic =   193.2602   Anisotropy =    69.2774

     13  C    Isotropic =    83.3994   Anisotropy =   127.3117

     14  C    Isotropic =    62.2861   Anisotropy =   158.1025

     15  C    Isotropic =    81.0708   Anisotropy =   161.2706

     16  C    Isotropic =    82.1332   Anisotropy =   127.4601

     17  H    Isotropic =    28.1183   Anisotropy =    11.9609

     18  H    Isotropic =    28.0859   Anisotropy =    11.8230

     19  H    Isotropic =    24.9707   Anisotropy =     5.6079

     20  H    Isotropic =    24.0326   Anisotropy =     4.8977

     21  H    Isotropic =    23.9257   Anisotropy =     6.2759

     22  H    Isotropic =    25.1027   Anisotropy =     6.0181

     23  H    Isotropic =    28.1184   Anisotropy =    11.9607

     24  H    Isotropic =    28.0859   Anisotropy =    11.8228

     25  H    Isotropic =    24.9708   Anisotropy =     5.6078

     26  H    Isotropic =    24.0327   Anisotropy =     4.8975

     27  H    Isotropic =    23.9260   Anisotropy =     6.2754

     28  H    Isotropic =    25.1028   Anisotropy =     6.0180

  Exact polarizability: 624.144  -5.260 209.903   0.742   0.025  63.864
 Approx polarizability: 670.625 -12.411 264.977   5.363   0.339  82.994

                      1                      2                      3
                      A                      A                      A
 Frequencies --     29.6859                44.2097                65.3430
 Red. masses --      3.6152                 5.4059                 5.1636
 Frc consts  --      0.0019                 0.0062                 0.0130
 IR Inten    --      2.0997                 5.9691                 8.9231

                      4                      5                      6
                      A                      A                      A
 Frequencies --     91.8920               190.5436               194.7778
 Red. masses --      5.4188                 5.8303                 5.4126
 Frc consts  --      0.0270                 0.1247                 0.1210
 IR Inten    --      0.0000                 0.0004                 4.4524

                      7                      8                      9
                      A                      A                      A
 Frequencies --    207.5258               266.4189               357.8622
 Red. masses --      7.1201                 5.1801                 4.7116
 Frc consts  --      0.1807                 0.2166                 0.3555
 IR Inten    --      0.0001                 0.0000                 0.0002

                     10                     11                     12
                      A                      A                      A
 Frequencies --    365.9868               371.4285               380.8832
 Red. masses --      1.2521                 1.0708                 2.1920
 Frc consts  --      0.0988                 0.0870                 0.1874
 IR Inten    --     40.0355                 0.0002                65.9618

                     13                     14                     15
                      A                      A                      A
 Frequencies --    404.6308               412.3795               431.7487
 Red. masses --      3.5086                 2.9831                 3.3516
 Frc consts  --      0.3385                 0.2989                 0.3681
 IR Inten    --    102.4007                 0.0003                 0.0292

                     16                     17                     18
                      A                      A                      A
 Frequencies --    432.2408               454.2248               485.7591
 Red. masses --      3.0685                 3.8584                 1.3979
 Frc consts  --      0.3378                 0.4690                 0.1943
 IR Inten    --    230.4701              1241.5313                 0.0048

                     19                     20                     21
                      A                      A                      A
 Frequencies --    495.1612               530.5182               535.7533
 Red. masses --      1.9069                 2.2808                 5.5577
 Frc consts  --      0.2755                 0.3782                 0.9399
 IR Inten    --    937.6061                 0.0007                13.6376

                     22                     23                     24
                      A                      A                      A
 Frequencies --    562.3456               614.6647               647.3604
 Red. masses --      2.3315                 5.2506                 6.8951
 Frc consts  --      0.4344                 1.1688                 1.7025
 IR Inten    --     86.3953                 0.0000                 0.0000

                     25                     26                     27
                      A                      A                      A
 Frequencies --    657.6277               727.1212               741.4247
 Red. masses --      6.8691                 4.3783                 4.7698
 Frc consts  --      1.7503                 1.3639                 1.5449
 IR Inten    --      5.3415                 0.0000                19.5847

                     28                     29                     30
                      A                      A                      A
 Frequencies --    790.1299               829.3680               829.7946
 Red. masses --      4.6759                 1.2825                 1.2613
 Frc consts  --      1.7199                 0.5197                 0.5117
 IR Inten    --      1.8254                 0.0010                 3.7305

                     31                     32                     33
                      A                      A                      A
 Frequencies --    835.5370               848.7461               851.9409
 Red. masses --      4.0094                 1.7588                 1.7653
 Frc consts  --      1.6491                 0.7465                 0.7549
 IR Inten    --      0.0001                 0.0002               132.8314

                     34                     35                     36
                      A                      A                      A
 Frequencies --    862.9196               936.5669               967.3136
 Red. masses --      5.8881                 7.2466                 1.2981
 Frc consts  --      2.5832                 3.7451                 0.7156
 IR Inten    --      5.5358                 0.0000                 0.0000

                     37                     38                     39
                      A                      A                      A
 Frequencies --    968.3366               985.3025               985.5453
 Red. masses --      1.3079                 1.3006                 1.3088
 Frc consts  --      0.7226                 0.7440                 0.7490
 IR Inten    --      1.3272                 0.0006                 1.1204

                     40                     41                     42
                      A                      A                      A
 Frequencies --   1017.5626              1018.0199              1076.6912
 Red. masses --      2.5493                 2.5918                 1.4252
 Frc consts  --      1.5552                 1.5826                 0.9734
 IR Inten    --      3.9915                 0.0002                 0.0066

                     43                     44                     45
                      A                      A                      A
 Frequencies --   1076.7864              1147.2301              1148.7318
 Red. masses --      1.4216                 1.1926                 1.1599
 Frc consts  --      0.9712                 0.9248                 0.9018
 IR Inten    --      8.7214                 0.0000                37.8263

                     46                     47                     48
                      A                      A                      A
 Frequencies --   1165.4459              1170.9076              1229.0525
 Red. masses --      1.5158                 1.2132                 2.2120
 Frc consts  --      1.2130                 0.9800                 1.9687
 IR Inten    --      0.0001               557.0234                 0.0000

                     49                     50                     51
                      A                      A                      A
 Frequencies --   1281.4116              1326.8694              1333.4745
 Red. masses --      3.2107                 2.0009                 2.1702
 Frc consts  --      3.1062                 2.0756                 2.2737
 IR Inten    --    135.2098               401.8343               445.4811

                     52                     53                     54
                      A                      A                      A
 Frequencies --   1333.7368              1337.5742              1377.4810
 Red. masses --      2.9430                 1.4934                 4.5454
 Frc consts  --      3.0845                 1.5742                 5.0815
 IR Inten    --      0.0685                 0.0001                18.3813

                     55                     56                     57
                      A                      A                      A
 Frequencies --   1381.0417              1463.4734              1487.0522
 Red. masses --      5.5394                 4.6019                 3.2893
 Frc consts  --      6.2248                 5.8070                 4.2856
 IR Inten    --      0.0000                 0.0000                10.7972

                     58                     59                     60
                      A                      A                      A
 Frequencies --   1511.1111              1547.8620              1548.4181
 Red. masses --      4.0813                 3.0602                 2.7670
 Frc consts  --      5.4908                 4.3198                 3.9087
 IR Inten    --      0.0000                 0.0059               270.4946

                     61                     62                     63
                      A                      A                      A
 Frequencies --   1611.8455              1616.5080              1648.5837
 Red. masses --      6.0680                 6.5326                 3.0428
 Frc consts  --      9.2885                10.0575                 4.8725
 IR Inten    --     95.8450                 0.0003               744.6479

                     64                     65                     66
                      A                      A                      A
 Frequencies --   1654.3805              1661.0797              1668.3730
 Red. masses --      1.4857                 1.4188                 2.8730
 Frc consts  --      2.3958                 2.3065                 4.7117
 IR Inten    --      0.0001              1202.8603                 0.0000

                     67                     68                     69
                      A                      A                      A
 Frequencies --   3180.3376              3180.5340              3183.6785
 Red. masses --      1.0897                 1.0897                 1.0880
 Frc consts  --      6.4937                 6.4944                 6.4975
 IR Inten    --     89.2145                 0.0759                57.6989

                     70                     71                     72
                      A                      A                      A
 Frequencies --   3183.7321              3201.4892              3201.8162
 Red. masses --      1.0880                 1.0944                 1.0945
 Frc consts  --      6.4974                 6.6091                 6.6110
 IR Inten    --      0.8978                54.0663                 0.0061

                     73                     74                     75
                      A                      A                      A
 Frequencies --   3220.1804              3220.2892              3577.2828
 Red. masses --      1.0918                 1.0919                 1.0476
 Frc consts  --      6.6706                 6.6712                 7.8987
 IR Inten    --      0.0070                15.7721               309.8975

                     76                     77                     78
                      A                      A                      A
 Frequencies --   3577.7044              3686.7247              3686.7266
 Red. masses --      1.0478                 1.1004                 1.1004
 Frc consts  --      7.9018                 8.8119                 8.8118
 IR Inten    --      0.0158                24.1284                47.9473

 - Thermochemistry -
 -------------------
 Temperature   298.150 Kelvin.  Pressure   1.00000 Atm.
 Atom     1 has atomic number  7 and mass  14.00307

 Molecular mass:   212.10620 amu.
 Principal axes and moments of inertia in atomic units:
                           1         2         3
     Eigenvalues --   682.05649********************
           X            1.00000   0.00082  -0.00216
           Y           -0.00082   1.00000  -0.00137
           Z            0.00216   0.00137   1.00000
 This molecule is an asymmetric top.
 Rotational symmetry number  1.
 Warning -- assumption of classical behavior for rotation
           may cause significant error
 Rotational temperatures (Kelvin)      0.12699     0.00855     0.00801
 Rotational constants (GHZ):           2.64603     0.17818     0.16698
 Zero-point vibrational energy     588157.3 (Joules/Mol)
                                  140.57296 (Kcal/Mol)
 Warning -- explicit consideration of  23 degrees of freedom as
           vibrations may cause significant error
 Vibrational temperatures:     42.71    63.61    94.01   132.21   274.15
          (Kelvin)            280.24   298.58   383.32   514.88   526.57
                              534.40   548.01   582.17   593.32   621.19
                              621.90   653.53   698.90   712.43   763.30
                              770.83   809.09   884.37   931.41   946.18
                             1046.17  1066.74  1136.82  1193.28  1193.89
                             1202.15  1221.16  1225.75  1241.55  1347.51
                             1391.75  1393.22  1417.63  1417.98  1464.05
                             1464.70  1549.12  1549.26  1650.61  1652.77
                             1676.82  1684.67  1768.33  1843.67  1909.07
                             1918.57  1918.95  1924.47  1981.89  1987.01
                             2105.61  2139.54  2174.15  2227.03  2227.83
                             2319.09  2325.79  2371.94  2380.28  2389.92
                             2400.42  4575.80  4576.08  4580.60  4580.68
                             4606.23  4606.70  4633.12  4633.28  5146.91
                             5147.52  5304.37  5304.38

 Zero-point correction=                           0.224017 (Hartree/Particle)
 Thermal correction to Energy=                    0.237751
 Thermal correction to Enthalpy=                  0.238695
 Thermal correction to Gibbs Free Energy=         0.182829
 Sum of electronic and zero-point Energies=           -683.290704
 Sum of electronic and thermal Energies=              -683.276971
 Sum of electronic and thermal Enthalpies=            -683.276027
 Sum of electronic and thermal Free Energies=         -683.331893

                     E (Thermal)             CV                S
                      KCal/Mol        Cal/Mol-Kelvin    Cal/Mol-Kelvin
 Total                  149.191             54.917            117.580
 Electronic               0.000              0.000              0.000
 Translational            0.889              2.981             41.959
 Rotational               0.889              2.981             32.679
 Vibrational            147.413             48.956             42.941
 Vibration     1          0.593              1.984              5.850
 Vibration     2          0.595              1.980              5.061
 Vibration     3          0.597              1.971              4.289
 Vibration     4          0.602              1.955              3.619
 Vibration     5          0.634              1.853              2.223
 Vibration     6          0.635              1.847              2.182
 Vibration     7          0.641              1.829              2.065
 Vibration     8          0.672              1.735              1.619
 Vibration     9          0.733              1.559              1.131
 Vibration    10          0.739              1.542              1.097
 Vibration    11          0.743              1.531              1.074
 Vibration    12          0.751              1.511              1.036
 Vibration    13          0.770              1.460              0.946
 Vibration    14          0.776              1.443              0.918
 Vibration    15          0.793              1.401              0.853
 Vibration    16          0.793              1.400              0.851
 Vibration    17          0.813              1.352              0.783
 Vibration    18          0.842              1.282              0.695
 Vibration    19          0.851              1.261              0.670
 Vibration    20          0.885              1.182              0.586
 Vibration    21          0.891              1.171              0.574
 Vibration    22          0.918              1.113              0.519
 Vibration    23          0.974              1.001              0.425

                           ! Non-Optimized Parameters !
 Normal termination of Gaussian 16 at Thu Jul 18 07:33:12 2024.
 Gaussian 16:  ES64L-G16RevA.03 25-Dec-2016

 ----------------------------------------------------------------------
 # TD(NStates=10, Root=1) B3LYP/6-31G** SCRF=(Solvent=water) volume pop
 =NPA density=current Geom=AllCheck Guess=Read
 ----------------------------------------------------------------------

 Structure from the checkpoint file:  "KQIKKETXZQDHGE-FOCLMDBBSA-N_conf_2_2.chk"
 ----------------------------------
 KQIKKETXZQDHGE-FOCLMDBBSA-N_conf_2
 ----------------------------------
 Charge =  0 Multiplicity = 1

                         Standard orientation:
 ---------------------------------------------------------------------
 Center     Atomic      Atomic             Coordinates (Angstroms)
 Number     Number       Type             X           Y           Z
 ---------------------------------------------------------------------
      1          7           0        5.942955    0.232047    0.064377
      2          6           0        4.571851    0.071592    0.005040
      3          6           0        3.989890   -1.212707    0.003378
      4          6           0        2.609865   -1.356467    0.002269
      5          6           0        1.758722   -0.238061    0.002376
      6          7           0        0.378443   -0.510076   -0.001043
      7          7           0       -0.378475    0.510199    0.001746
      8          6           0       -1.758732    0.238163   -0.002003
      9          6           0       -2.340232   -1.046757   -0.003637
     10          6           0       -3.715544   -1.198589   -0.005343
     11          6           0       -4.571841   -0.071660   -0.005315
     12          7           0       -5.942923   -0.232124   -0.065062
     13          6           0       -3.989957    1.212674   -0.002124
     14          6           0       -2.609942    1.356520   -0.000762
     15          6           0        2.340301    1.046818    0.002496
     16          6           0        3.715623    1.198561    0.003871
     17          1           0        6.504106   -0.551524   -0.240082
     18          1           0        6.307853    1.121757   -0.246854
     19          1           0        4.630153   -2.090417    0.003076
     20          1           0        2.159906   -2.344815   -0.001807
     21          1           0       -1.691793   -1.915609   -0.000603
     22          1           0       -4.152214   -2.193944   -0.006856
     23          1           0       -6.504153    0.551077    0.240202
     24          1           0       -6.307816   -1.122193    0.245148
     25          1           0       -4.630278    2.090340   -0.000883
     26          1           0       -2.160043    2.344889    0.004425
     27          1           0        1.691913    1.915703   -0.001515
     28          1           0        4.152350    2.193894    0.004139
 ---------------------------------------------------------------------

 SCF Done:  E(RB3LYP) =  -683.514721776     A.U. after    1 cycles

 Excitation energies and oscillator strengths:

 Excited State   1:      Singlet-A      2.7572 eV  449.68 nm  f=0.0015  <S**2>=0.000
      55 -> 57         0.70375
 This state for optimization and/or second-order correction.
 Total Energy, E(TD-HF/TD-DFT) =  -683.413396811
 Copying the excited state density for this state as the 1-particle RhoCI density.

 Excited State   2:      Singlet-A      2.7709 eV  447.45 nm  f=1.3828  <S**2>=0.000
      56 -> 57         0.70676

 Excited State   3:      Singlet-A      3.8880 eV  318.89 nm  f=0.0000  <S**2>=0.000
      54 -> 57         0.69412
      56 -> 60         0.11031

 Excited State   4:      Singlet-A      4.2444 eV  292.11 nm  f=0.0160  <S**2>=0.000
      53 -> 57         0.50722
      56 -> 58         0.47960

 Excited State   5:      Singlet-A      4.2568 eV  291.26 nm  f=0.0000  <S**2>=0.000
      52 -> 57         0.50341
      56 -> 59        -0.48035

 Excited State   6:      Singlet-A      4.6291 eV  267.84 nm  f=0.3164  <S**2>=0.000
      53 -> 57        -0.48705
      56 -> 58         0.50579

 Excited State   7:      Singlet-A      4.6389 eV  267.27 nm  f=0.0000  <S**2>=0.000
      52 -> 57         0.48704
      56 -> 59         0.50413

 Excited State   8:      Singlet-A      5.0178 eV  247.09 nm  f=0.0000  <S**2>=0.000
      55 -> 58         0.70650

 Excited State   9:      Singlet-A      5.0312 eV  246.43 nm  f=0.0000  <S**2>=0.000
      55 -> 59         0.70641

 Excited State  10:      Singlet-A      5.3816 eV  230.38 nm  f=0.0000  <S**2>=0.000
      54 -> 58         0.43702
      56 -> 60         0.53615

 The electronic state is 1-A.
 Alpha  occ. eigenvalues --  -14.36447 -14.36405 -14.34637 -14.34637 -10.23842
 Alpha  occ. eigenvalues --  -10.23842 -10.20715 -10.20715 -10.19308 -10.19308
 Alpha  occ. eigenvalues --  -10.19185 -10.19185 -10.18962 -10.18962 -10.18741
 Alpha  occ. eigenvalues --  -10.18741  -1.01419  -0.92433  -0.92397  -0.85650
 Alpha  occ. eigenvalues --   -0.83385  -0.77633  -0.74919  -0.74890  -0.71918
 Alpha  occ. eigenvalues --   -0.66347  -0.62053  -0.61861  -0.59746  -0.56450
 Alpha  occ. eigenvalues --   -0.52980  -0.52155  -0.51522  -0.51466  -0.49070
 Alpha  occ. eigenvalues --   -0.45039  -0.44109  -0.43897  -0.42500  -0.42252
 Alpha  occ. eigenvalues --   -0.42145  -0.41991  -0.40647  -0.39192  -0.38036
 Alpha  occ. eigenvalues --   -0.37596  -0.36692  -0.34090  -0.33854  -0.32637
 Alpha  occ. eigenvalues --   -0.29321  -0.25680  -0.25647  -0.22472  -0.22045
 Alpha  occ. eigenvalues --   -0.18700
 Alpha virt. eigenvalues --   -0.06896  -0.00344  -0.00290   0.02464   0.05735
 Alpha virt. eigenvalues --    0.09108   0.09295   0.11272   0.11398   0.12514
 Alpha virt. eigenvalues --    0.13057   0.16455   0.16833   0.17315   0.17888

 Mulliken charges:
               1
     1  N   -0.677507
     2  C    0.271353
     3  C   -0.140779
     4  C   -0.128517
     5  C    0.263917
     6  N   -0.302212
     7  N   -0.302228
     8  C    0.263917
     9  C   -0.108298
    10  C   -0.146194
    11  C    0.271339
    12  N   -0.677500
    13  C   -0.140770
    14  C   -0.128518
    15  C   -0.108285
    16  C   -0.146208
    17  H    0.281159
    18  H    0.281338
    19  H    0.097659
    20  H    0.102030
    21  H    0.103817
    22  H    0.102218
    23  H    0.281156
    24  H    0.281364
    25  H    0.097658
    26  H    0.102011
    27  H    0.103829
    28  H    0.102249
 Sum of Mulliken charges =  -0.00000

 Dipole moment (field-independent basis, Debye):
    X=             -0.0003    Y=             -0.0015    Z=             -0.0088  Tot=              0.0090
 Quadrupole moment (field-independent basis, Debye-Ang):
   XX=            -37.5311   YY=            -79.8136   ZZ=            -99.6424
   XY=              2.4392   XZ=            -14.3481   YZ=             -0.6633

 Summary of Natural Population Analysis:

                                       Natural Population
                Natural  -----------------------------------------------
    Atom  No    Charge         Core      Valence    Rydberg      Total
 -----------------------------------------------------------------------
      N    1   -0.84879      1.99949     5.83786    0.01143     7.84879
      C    2    0.15527      1.99902     3.82789    0.01782     5.84473
      C    3   -0.29153      1.99905     4.27977    0.01271     6.29153
      C    4   -0.23574      1.99907     4.22300    0.01367     6.23574
      C    5    0.05351      1.99886     3.92557    0.02206     5.94649
      N    6   -0.12178      1.99937     5.10054    0.02187     7.12178
      N    7   -0.12181      1.99937     5.10057    0.02187     7.12181
      C    8    0.05350      1.99886     3.92558    0.02206     5.94650
      C    9   -0.26679      1.99904     4.25435    0.01340     6.26679
      C   10   -0.27922      1.99905     4.26743    0.01274     6.27922
      C   11    0.15526      1.99902     3.82791    0.01781     5.84474
      N   12   -0.84875      1.99949     5.83782    0.01144     7.84875
      C   13   -0.29153      1.99905     4.27977    0.01271     6.29153
      C   14   -0.23575      1.99907     4.22301    0.01367     6.23575
      C   15   -0.26678      1.99904     4.25434    0.01340     6.26678
      C   16   -0.27921      1.99905     4.26742    0.01274     6.27921
      H   17    0.41834      0.00000     0.57934    0.00232     0.58166
      H   18    0.41834      0.00000     0.57935    0.00231     0.58166
      H   19    0.24635      0.00000     0.75217    0.00148     0.75365
      H   20    0.25006      0.00000     0.74837    0.00157     0.74994
      H   21    0.25295      0.00000     0.74546    0.00159     0.74705
      H   22    0.24901      0.00000     0.74950    0.00149     0.75099
      H   23    0.41832      0.00000     0.57935    0.00232     0.58168
      H   24    0.41836      0.00000     0.57933    0.00231     0.58164
      H   25    0.24634      0.00000     0.75217    0.00148     0.75366
      H   26    0.25005      0.00000     0.74838    0.00157     0.74995
      H   27    0.25296      0.00000     0.74545    0.00159     0.74704
      H   28    0.24903      0.00000     0.74949    0.00149     0.75097
 =======================================================================
   * Total *    0.00000     31.98590    79.74120    0.27290   112.00000

 Normal termination of Gaussian 16 at Thu Jul 18 07:46:50 2024.
