 Gaussian 16, Revision A.03,

 -------------------------------------------------------
 # opt=CalcFc B3LYP/6-31G** SCRF=(Solvent=water) scf=xqc
 -------------------------------------------------------

 ----------------------------------
 NVKGJHAQGWCWDI-UHFFFAOYSA-N_conf_0
 ----------------------------------
 Symbolic Z-matrix:
 Charge =  0 Multiplicity = 1

 SCF Done:  E(RB3LYP) =  -1248.11187347     A.U. after   12 cycles
 SCF Done:  E(RB3LYP) =  -1248.11707023     A.U. after   11 cycles
 SCF Done:  E(RB3LYP) =  -1248.11723568     A.U. after    9 cycles
 SCF Done:  E(RB3LYP) =  -1248.11723653     A.U. after    7 cycles
 SCF Done:  E(RB3LYP) =  -1248.11723659     A.U. after    7 cycles
 Optimization completed.
    -- Stationary point found.
 Normal termination of Gaussian 16 at Sun Jul 21 12:27:15 2024.

 ----------------------------------------------------------------------
 # freq B3LYP/6-31G** SCRF=(Solvent=water) volume NMR pop=NPA density=c
 urrent Geom=AllCheck Guess=Read
 ----------------------------------------------------------------------

 Structure from the checkpoint file:  "NVKGJHAQGWCWDI-UHFFFAOYSA-N_conf_0_1.chk"
 ----------------------------------
 NVKGJHAQGWCWDI-UHFFFAOYSA-N_conf_0
 ----------------------------------
 Charge =  0 Multiplicity = 1

 SCF Done:  E(RB3LYP) =  -1248.11723659     A.U. after    1 cycles

      1  N    Isotropic =   197.9797   Anisotropy =    73.1375

      2  C    Isotropic =    50.2721   Anisotropy =   161.5117

      3  C    Isotropic =    81.4244   Anisotropy =   133.8521

      4  C    Isotropic =    61.8522   Anisotropy =   158.3519

      5  C    Isotropic =    67.5699   Anisotropy =   154.8978

      6  C    Isotropic =    67.5699   Anisotropy =   154.8978

      7  C    Isotropic =    61.8522   Anisotropy =   158.3519

      8  C    Isotropic =    81.4244   Anisotropy =   133.8521

      9  C    Isotropic =    50.2721   Anisotropy =   161.5117

     10  N    Isotropic =   197.9797   Anisotropy =    73.1375

     11  C    Isotropic =    84.4094   Anisotropy =   130.4237

     12  C    Isotropic =    63.7113   Anisotropy =   138.7901

     13  C    Isotropic =    62.2794   Anisotropy =    13.4222

     14  F    Isotropic =   250.4224   Anisotropy =   130.2787

     15  F    Isotropic =   276.8781   Anisotropy =   124.2482

     16  F    Isotropic =   261.4944   Anisotropy =   113.2404

     17  C    Isotropic =    63.7113   Anisotropy =   138.7901

     18  C    Isotropic =    62.2794   Anisotropy =    13.4222

     19  F    Isotropic =   250.4224   Anisotropy =   130.2787

     20  F    Isotropic =   276.8781   Anisotropy =   124.2482

     21  F    Isotropic =   261.4944   Anisotropy =   113.2404

     22  C    Isotropic =    84.4094   Anisotropy =   130.4237

     23  H    Isotropic =    28.2773   Anisotropy =    12.6458

     24  H    Isotropic =    28.2664   Anisotropy =    12.1434

     25  H    Isotropic =    24.9811   Anisotropy =     5.3659

     26  H    Isotropic =    24.6479   Anisotropy =     8.4632

     27  H    Isotropic =    24.6479   Anisotropy =     8.4632

     28  H    Isotropic =    24.9811   Anisotropy =     5.3659

     29  H    Isotropic =    28.2773   Anisotropy =    12.6458

     30  H    Isotropic =    28.2664   Anisotropy =    12.1434

     31  H    Isotropic =    24.7985   Anisotropy =     9.3538

     32  H    Isotropic =    24.7985   Anisotropy =     9.3538

  Exact polarizability: 320.430  26.099 177.882   0.000   0.000 144.679
 Approx polarizability: 358.909  23.318 222.080   0.000   0.000 183.399

                      1                      2                      3
                      A                      A                      A
 Frequencies --     40.5758                43.9297                49.7621
 Red. masses --      8.2561                17.1839                 7.6430
 Frc consts  --      0.0080                 0.0195                 0.0112
 IR Inten    --      2.4028                 0.0894                 0.5872

                      4                      5                      6
                      A                      A                      A
 Frequencies --     51.7407                52.0702               120.0873
 Red. masses --     12.4443                 6.0024                 5.9595
 Frc consts  --      0.0196                 0.0096                 0.0506
 IR Inten    --      0.3135                 1.8606                 0.2955

                      7                      8                      9
                      A                      A                      A
 Frequencies --    132.4045               146.5736               156.2784
 Red. masses --      5.1888                 7.9166                 7.6267
 Frc consts  --      0.0536                 0.1002                 0.1097
 IR Inten    --      2.9673                 0.4954                 6.4906

                     10                     11                     12
                      A                      A                      A
 Frequencies --    190.0642               203.2345               240.8248
 Red. masses --      6.1186                 6.0992                 8.5589
 Frc consts  --      0.1302                 0.1484                 0.2925
 IR Inten    --      0.1767                 0.3222                 0.8739

                     13                     14                     15
                      A                      A                      A
 Frequencies --    302.1538               304.0985               315.6389
 Red. masses --      6.5997                 6.2567                 7.6502
 Frc consts  --      0.3550                 0.3409                 0.4491
 IR Inten    --      2.9873                14.8677                 0.3747

                     16                     17                     18
                      A                      A                      A
 Frequencies --    335.2926               337.1192               341.5889
 Red. masses --      1.2227                 1.0654                 3.2578
 Frc consts  --      0.0810                 0.0713                 0.2240
 IR Inten    --     27.7700                33.2309                 1.0447

                     19                     20                     21
                      A                      A                      A
 Frequencies --    361.1242               362.7976               397.6596
 Red. masses --      7.8394                 8.1278                 4.2628
 Frc consts  --      0.6023                 0.6303                 0.3972
 IR Inten    --      0.0831                 3.8263                 3.0331

                     22                     23                     24
                      A                      A                      A
 Frequencies --    405.2758               451.3261               454.7624
 Red. masses --      4.6593                 3.9417                 3.9030
 Frc consts  --      0.4509                 0.4731                 0.4756
 IR Inten    --      0.0189                17.0447                 8.0113

                     25                     26                     27
                      A                      A                      A
 Frequencies --    489.6414               496.7970               531.8354
 Red. masses --      8.6124                 8.7812                 3.3558
 Frc consts  --      1.2166                 1.2769                 0.5592
 IR Inten    --     12.0006                 0.4505               484.9374

                     28                     29                     30
                      A                      A                      A
 Frequencies --    536.2204               546.6556               565.9087
 Red. masses --      3.1018                 3.1910                 1.9281
 Frc consts  --      0.5255                 0.5618                 0.3638
 IR Inten    --     96.3890               189.9298                72.6634

                     31                     32                     33
                      A                      A                      A
 Frequencies --    573.5546               590.1574               594.2235
 Red. masses --      2.2686                 4.9310                 6.0575
 Frc consts  --      0.4397                 1.0119                 1.2602
 IR Inten    --    431.1434                14.5656                 8.4419

                     34                     35                     36
                      A                      A                      A
 Frequencies --    653.9018               655.5998               673.1841
 Red. masses --      4.6403                 4.5811                 8.7722
 Frc consts  --      1.1690                 1.1601                 2.3422
 IR Inten    --      3.9465                53.4128                 6.7456

                     37                     38                     39
                      A                      A                      A
 Frequencies --    674.8839               709.6657               749.2906
 Red. masses --      8.8834                 4.9133                 8.6533
 Frc consts  --      2.3839                 1.4579                 2.8624
 IR Inten    --     25.2401                 3.8470                 0.9003

                     40                     41                     42
                      A                      A                      A
 Frequencies --    751.0953               751.8295               757.2174
 Red. masses --      9.2067                 5.4450                 5.2180
 Frc consts  --      3.0601                 1.8134                 1.7628
 IR Inten    --      7.6654                 0.0318                 4.4681

                     43                     44                     45
                      A                      A                      A
 Frequencies --    839.5170               844.2979               879.9225
 Red. masses --      1.4892                 1.5356                 1.4453
 Frc consts  --      0.6184                 0.6449                 0.6593
 IR Inten    --     48.8267                34.5039                33.6750

                     46                     47                     48
                      A                      A                      A
 Frequencies --    880.0710               918.3823               927.9466
 Red. masses --      1.4480                 5.3280                 5.5778
 Frc consts  --      0.6608                 2.6477                 2.8298
 IR Inten    --     33.1467                48.7112                27.5399

                     49                     50                     51
                      A                      A                      A
 Frequencies --    957.1245               958.0108              1013.5785
 Red. masses --      1.3005                 1.3094                 7.0849
 Frc consts  --      0.7019                 0.7080                 4.2884
 IR Inten    --      1.4694                 0.2859                10.6763

                     52                     53                     54
                      A                      A                      A
 Frequencies --   1064.7133              1090.4678              1107.0401
 Red. masses --      3.4397                 2.4932                 1.5809
 Frc consts  --      2.2974                 1.7468                 1.1415
 IR Inten    --     60.2798               105.1752                 1.2306

                     55                     56                     57
                      A                      A                      A
 Frequencies --   1109.7752              1138.9157              1144.8477
 Red. masses --      1.7443                12.4502                 7.8331
 Frc consts  --      1.2657                 9.5150                 6.0489
 IR Inten    --     68.3133               282.0544               347.7121

                     58                     59                     60
                      A                      A                      A
 Frequencies --   1164.8691              1168.3872              1182.9196
 Red. masses --      1.9387                 1.9713                 2.2515
 Frc consts  --      1.5500                 1.5855                 1.8562
 IR Inten    --    281.5363                19.6821               478.9197

                     61                     62                     63
                      A                      A                      A
 Frequencies --   1186.8056              1276.1317              1278.3409
 Red. masses --      2.6466                 2.4873                 3.7683
 Frc consts  --      2.1963                 2.3865                 3.6282
 IR Inten    --      4.6351               258.0614               165.3676

                     64                     65                     66
                      A                      A                      A
 Frequencies --   1282.1949              1283.3533              1314.1226
 Red. masses --      1.8380                 1.9314                 2.5948
 Frc consts  --      1.7803                 1.8742                 2.6401
 IR Inten    --    119.0825               124.1011                10.9509

                     67                     68                     69
                      A                      A                      A
 Frequencies --   1354.3380              1356.0812              1358.7411
 Red. masses --      3.9792                 2.7807                 3.6687
 Frc consts  --      4.3003                 3.0128                 3.9905
 IR Inten    --      3.3518                38.2210               494.9841

                     70                     71                     72
                      A                      A                      A
 Frequencies --   1363.5776              1482.9705              1489.3944
 Red. masses --      6.5608                 3.3012                 3.4280
 Frc consts  --      7.1873                 4.2775                 4.4804
 IR Inten    --     65.5888               152.0721                13.7307

                     73                     74                     75
                      A                      A                      A
 Frequencies --   1531.3799              1560.3749              1612.5437
 Red. masses --      2.9357                 3.5923                 6.3269
 Frc consts  --      4.0563                 5.1533                 9.6932
 IR Inten    --    265.6297                 1.8805                25.3438

                     76                     77                     78
                      A                      A                      A
 Frequencies --   1617.6365              1657.6156              1658.0545
 Red. masses --      6.5949                 1.4421                 1.3203
 Frc consts  --     10.1677                 2.3347                 2.1386
 IR Inten    --      0.9475                16.8855                32.2264

                     79                     80                     81
                      A                      A                      A
 Frequencies --   1670.3437              1673.0825              3186.1486
 Red. masses --      2.9413                 3.5344                 1.0888
 Frc consts  --      4.8351                 5.8290                 6.5124
 IR Inten    --      6.2332               488.8885                40.2023

                     82                     83                     84
                      A                      A                      A
 Frequencies --   3186.2404              3208.1585              3208.4439
 Red. masses --      1.0887                 1.0936                 1.0939
 Frc consts  --      6.5122                 6.6319                 6.6347
 IR Inten    --      3.5227                18.6189                12.4483

                     85                     86                     87
                      A                      A                      A
 Frequencies --   3218.2449              3218.3657              3570.1185
 Red. masses --      1.0904                 1.0904                 1.0483
 Frc consts  --      6.6540                 6.6543                 7.8720
 IR Inten    --     18.1488                 0.0820               102.5741

                     88                     89                     90
                      A                      A                      A
 Frequencies --   3570.2195              3674.9770              3674.9780
 Red. masses --      1.0483                 1.0993                 1.0992
 Frc consts  --      7.8729                 8.7469                 8.7469
 IR Inten    --     10.8040                38.1640                24.7344

 - Thermochemistry -
 -------------------
 Temperature   298.150 Kelvin.  Pressure   1.00000 Atm.
 Atom     1 has atomic number  7 and mass  14.00307

 Molecular mass:   320.07482 amu.
 Principal axes and moments of inertia in atomic units:
                           1         2         3
     Eigenvalues --  4408.810258255.172779592.27941
           X            0.99928   0.03782   0.00000
           Y           -0.03782   0.99928  -0.00000
           Z           -0.00000   0.00000   1.00000
 This molecule is an asymmetric top.
 Rotational symmetry number  1.
 Warning -- assumption of classical behavior for rotation
           may cause significant error
 Rotational temperatures (Kelvin)      0.01965     0.01049     0.00903
 Rotational constants (GHZ):           0.40935     0.21862     0.18815
 Zero-point vibrational energy     587437.1 (Joules/Mol)
                                  140.40083 (Kcal/Mol)
 Warning -- explicit consideration of  33 degrees of freedom as
           vibrations may cause significant error
 Vibrational temperatures:     58.38    63.21    71.60    74.44    74.92
          (Kelvin)            172.78   190.50   210.89   224.85   273.46
                              292.41   346.49   434.73   437.53   454.13
                              482.41   485.04   491.47   519.58   521.98
                              572.14   583.10   649.36   654.30   704.48
                              714.78   765.19   771.50   786.52   814.22
                              825.22   849.10   854.96   940.82   943.26
                              968.56   971.01  1021.05  1078.06  1080.66
                             1081.71  1089.47  1207.88  1214.76  1266.01
                             1266.23  1321.35  1335.11  1377.09  1378.36
                             1458.31  1531.89  1568.94  1592.78  1596.72
                             1638.65  1647.18  1675.99  1681.05  1701.96
                             1707.55  1836.07  1839.25  1844.79  1846.46
                             1890.73  1948.59  1951.10  1954.93  1961.88
                             2133.66  2142.91  2203.31  2245.03  2320.09
                             2327.42  2384.94  2385.57  2403.25  2407.19
                             4584.16  4584.29  4615.82  4616.24  4630.34
                             4630.51  5136.60  5136.75  5287.47  5287.47

 Zero-point correction=                           0.223743 (Hartree/Particle)
 Thermal correction to Energy=                    0.242799
 Thermal correction to Enthalpy=                  0.243743
 Thermal correction to Gibbs Free Energy=         0.175920
 Sum of electronic and zero-point Energies=          -1247.893494
 Sum of electronic and thermal Energies=             -1247.874437
 Sum of electronic and thermal Enthalpies=           -1247.873493
 Sum of electronic and thermal Free Energies=        -1247.941317

                     E (Thermal)             CV                S
                      KCal/Mol        Cal/Mol-Kelvin    Cal/Mol-Kelvin
 Total                  152.359             73.864            142.746
 Electronic               0.000              0.000              0.000
 Translational            0.889              2.981             43.186
 Rotational               0.889              2.981             34.212
 Vibrational            150.581             67.903             65.349
 Vibration     1          0.594              1.981              5.231
 Vibration     2          0.595              1.980              5.073
 Vibration     3          0.595              1.978              4.827
 Vibration     4          0.596              1.977              4.750
 Vibration     5          0.596              1.977              4.737
 Vibration     6          0.609              1.933              3.099
 Vibration     7          0.613              1.921              2.911
 Vibration     8          0.617              1.906              2.716
 Vibration     9          0.620              1.896              2.594
 Vibration    10          0.633              1.854              2.227
 Vibration    11          0.639              1.835              2.104
 Vibration    12          0.658              1.778              1.797
 Vibration    13          0.694              1.670              1.405
 Vibration    14          0.695              1.666              1.394
 Vibration    15          0.703              1.644              1.333
 Vibration    16          0.716              1.605              1.234
 Vibration    17          0.718              1.601              1.226
 Vibration    18          0.721              1.592              1.205
 Vibration    19          0.735              1.552              1.117
 Vibration    20          0.737              1.549              1.110
 Vibration    21          0.764              1.475              0.971
 Vibration    22          0.770              1.459              0.943
 Vibration    23          0.810              1.358              0.792
 Vibration    24          0.813              1.350              0.782
 Vibration    25          0.845              1.273              0.685
 Vibration    26          0.852              1.257              0.666
 Vibration    27          0.887              1.180              0.583
 Vibration    28          0.891              1.170              0.573
 Vibration    29          0.902              1.147              0.551
 Vibration    30          0.922              1.105              0.512
 Vibration    31          0.930              1.088              0.497
 Vibration    32          0.947              1.053              0.467
 Vibration    33          0.952              1.044              0.460

 Optimization completed.
    -- Stationary point found.
 Normal termination of Gaussian 16 at Sun Jul 21 12:54:55 2024.
 Gaussian 16:  ES64L-G16RevA.03 25-Dec-2016

 ----------------------------------------------------------------------
 # TD(NStates=10, Root=1) B3LYP/6-31G** SCRF=(Solvent=water) volume pop
 =NPA density=current Geom=AllCheck Guess=Read
 ----------------------------------------------------------------------

 Structure from the checkpoint file:  "NVKGJHAQGWCWDI-UHFFFAOYSA-N_conf_0_2.chk"
 ----------------------------------
 NVKGJHAQGWCWDI-UHFFFAOYSA-N_conf_0
 ----------------------------------
 Charge =  0 Multiplicity = 1

                         Standard orientation:
 ---------------------------------------------------------------------
 Center     Atomic      Atomic             Coordinates (Angstroms)
 Number     Number       Type             X           Y           Z
 ---------------------------------------------------------------------
      1          7           0        4.888914    0.981179   -0.840028
      2          6           0        3.533295    0.681289   -0.820399
      3          6           0        2.606413    1.449405   -1.545268
      4          6           0        1.245693    1.175652   -1.463487
      5          6           0        0.736585    0.137090   -0.670766
      6          6           0       -0.736585   -0.137090   -0.670766
      7          6           0       -1.245693   -1.175652   -1.463487
      8          6           0       -2.606413   -1.449405   -1.545268
      9          6           0       -3.533295   -0.681289   -0.820399
     10          7           0       -4.888914   -0.981178   -0.840028
     11          6           0       -3.039668    0.363136   -0.019348
     12          6           0       -1.673030    0.628961    0.054220
     13          6           0       -1.220307    1.772115    0.927728
     14          9           0       -0.727087    2.808338    0.200140
     15          9           0       -2.227306    2.280574    1.676341
     16          9           0       -0.244015    1.408993    1.791884
     17          6           0        1.673029   -0.628961    0.054220
     18          6           0        1.220307   -1.772115    0.927728
     19          9           0        0.727087   -2.808338    0.200140
     20          9           0        2.227306   -2.280574    1.676341
     21          9           0        0.244015   -1.408993    1.791884
     22          6           0        3.039668   -0.363136   -0.019349
     23          1           0        5.210191    1.487103   -1.654750
     24          1           0        5.509411    0.219105   -0.600732
     25          1           0        2.957743    2.261712   -2.175442
     26          1           0        0.551089    1.782345   -2.035164
     27          1           0       -0.551089   -1.782345   -2.035164
     28          1           0       -2.957743   -2.261712   -2.175442
     29          1           0       -5.210191   -1.487103   -1.654750
     30          1           0       -5.509411   -0.219104   -0.600732
     31          1           0       -3.732986    0.966761    0.554913
     32          1           0        3.732986   -0.966761    0.554913
 ---------------------------------------------------------------------

 SCF Done:  E(RB3LYP) =  -1248.11723659     A.U. after    1 cycles

 Excitation energies and oscillator strengths:

 Excited State   1:      Singlet-A      4.2456 eV  292.03 nm  f=0.1629  <S**2>=0.000
      81 -> 82         0.69540
 This state for optimization and/or second-order correction.
 Total Energy, E(TD-HF/TD-DFT) =  -1247.96121242
 Copying the excited state density for this state as the 1-particle RhoCI density.

 Excited State   2:      Singlet-A      4.4708 eV  277.32 nm  f=0.0370  <S**2>=0.000
      80 -> 82         0.68351

 Excited State   3:      Singlet-A      4.6075 eV  269.09 nm  f=0.0247  <S**2>=0.000
      80 -> 82        -0.10117
      80 -> 84         0.11070
      81 -> 83         0.67889

 Excited State   4:      Singlet-A      4.7974 eV  258.44 nm  f=0.0720  <S**2>=0.000
      80 -> 83         0.60845
      81 -> 84         0.32368

 Excited State   5:      Singlet-A      4.9205 eV  251.97 nm  f=0.4471  <S**2>=0.000
      80 -> 83        -0.32864
      81 -> 84         0.61475

 Excited State   6:      Singlet-A      5.0923 eV  243.47 nm  f=0.0001  <S**2>=0.000
      80 -> 84         0.53797
      81 -> 85        -0.44835

 Excited State   7:      Singlet-A      5.4264 eV  228.48 nm  f=0.4714  <S**2>=0.000
      79 -> 82         0.14282
      80 -> 85         0.67899

 Excited State   8:      Singlet-A      5.4293 eV  228.36 nm  f=0.0000  <S**2>=0.000
      78 -> 82         0.23900
      79 -> 83         0.13186
      80 -> 82        -0.10090
      80 -> 84         0.38965
      81 -> 83        -0.11340
      81 -> 85         0.49572

 Excited State   9:      Singlet-A      5.8264 eV  212.80 nm  f=0.4414  <S**2>=0.000
      78 -> 83        -0.19932
      79 -> 82         0.65747
      80 -> 85        -0.12321

 Excited State  10:      Singlet-A      5.9282 eV  209.14 nm  f=0.0143  <S**2>=0.000
      78 -> 82         0.57494
      79 -> 83        -0.38182
      81 -> 85        -0.10377

 The electronic state is 1-A.
 Alpha  occ. eigenvalues --  -24.72793 -24.72793 -24.72324 -24.72323 -24.72231
 Alpha  occ. eigenvalues --  -24.72231 -14.34339 -14.34339 -10.43345 -10.43345
 Alpha  occ. eigenvalues --  -10.23865 -10.23865 -10.21533 -10.21533 -10.20507
 Alpha  occ. eigenvalues --  -10.20480 -10.19721 -10.19721 -10.19666 -10.19666
 Alpha  occ. eigenvalues --  -10.19238 -10.19238  -1.30172  -1.30117  -1.21565
 Alpha  occ. eigenvalues --   -1.21493  -1.21186  -1.21098  -0.92414  -0.92339
 Alpha  occ. eigenvalues --   -0.87044  -0.84521  -0.77766  -0.77636  -0.76448
 Alpha  occ. eigenvalues --   -0.72181  -0.69985  -0.68709  -0.63096  -0.62918
 Alpha  occ. eigenvalues --   -0.62319  -0.60291  -0.58059  -0.57981  -0.57843
 Alpha  occ. eigenvalues --   -0.57625  -0.56674  -0.55132  -0.51654  -0.51523
 Alpha  occ. eigenvalues --   -0.50188  -0.49002  -0.48260  -0.46040  -0.45898
 Alpha  occ. eigenvalues --   -0.45823  -0.45732  -0.44536  -0.44299  -0.44259
 Alpha  occ. eigenvalues --   -0.43509  -0.42309  -0.41725  -0.41670  -0.40951
 Alpha  occ. eigenvalues --   -0.40692  -0.39883  -0.39853  -0.39755  -0.39357
 Alpha  occ. eigenvalues --   -0.38911  -0.38479  -0.35470  -0.35163  -0.35118
 Alpha  occ. eigenvalues --   -0.31757  -0.31151  -0.26552  -0.26160  -0.21561
 Alpha  occ. eigenvalues --   -0.20713
 Alpha virt. eigenvalues --   -0.02797  -0.01381  -0.00511   0.00641   0.08826
 Alpha virt. eigenvalues --    0.09134   0.10988   0.12040   0.12902   0.13410
 Alpha virt. eigenvalues --    0.13598   0.13671   0.14262   0.14409   0.17124

 Mulliken charges:
               1
     1  N   -0.619141
     2  C    0.275365
     3  C   -0.146024
     4  C   -0.117582
     5  C    0.003723
     6  C    0.003723
     7  C   -0.117582
     8  C   -0.146024
     9  C    0.275365
    10  N   -0.619141
    11  C   -0.163258
    12  C   -0.089503
    13  C    0.782374
    14  F   -0.281138
    15  F   -0.282295
    16  F   -0.281591
    17  C   -0.089503
    18  C    0.782374
    19  F   -0.281138
    20  F   -0.282295
    21  F   -0.281591
    22  C   -0.163258
    23  H    0.303101
    24  H    0.304073
    25  H    0.098403
    26  H    0.104736
    27  H    0.104736
    28  H    0.098403
    29  H    0.303101
    30  H    0.304073
    31  H    0.108758
    32  H    0.108758
 Sum of Mulliken charges =  -0.00000

 Dipole moment (field-independent basis, Debye):
    X=              0.0000    Y=              0.0000    Z=             -6.2314  Tot=              6.2314
 Quadrupole moment (field-independent basis, Debye-Ang):
   XX=            -51.6544   YY=           -128.0503   ZZ=           -118.2379
   XY=              8.4057   XZ=             -0.0000   YZ=             -0.0000

 Summary of Natural Population Analysis:

                                       Natural Population
                Natural  -----------------------------------------------
    Atom  No    Charge         Core      Valence    Rydberg      Total
 -----------------------------------------------------------------------
      N    1   -0.75373      1.99948     5.74357    0.01069     7.75373
      C    2    0.19015      1.99898     3.79289    0.01798     5.80985
      C    3   -0.32696      1.99904     4.31213    0.01579     6.32696
      C    4   -0.21323      1.99905     4.19870    0.01549     6.21323
      C    5   -0.01625      1.99897     3.99813    0.01915     6.01625
      C    6   -0.01625      1.99897     3.99813    0.01915     6.01625
      C    7   -0.21323      1.99905     4.19870    0.01549     6.21323
      C    8   -0.32696      1.99904     4.31213    0.01579     6.32696
      C    9    0.19015      1.99898     3.79289    0.01798     5.80985
      N   10   -0.75373      1.99948     5.74357    0.01069     7.75373
      C   11   -0.27196      1.99901     4.25758    0.01537     6.27196
      C   12   -0.21280      1.99879     4.19615    0.01786     6.21280
      C   13    1.11070      1.99905     2.82003    0.07022     4.88930
      F   14   -0.37719      1.99993     7.37122    0.00604     9.37719
      F   15   -0.37245      1.99993     7.36669    0.00583     9.37245
      F   16   -0.37099      1.99993     7.36482    0.00624     9.37099
      C   17   -0.21280      1.99879     4.19615    0.01786     6.21280
      C   18    1.11070      1.99905     2.82003    0.07022     4.88930
      F   19   -0.37719      1.99993     7.37122    0.00604     9.37719
      F   20   -0.37245      1.99993     7.36669    0.00583     9.37245
      F   21   -0.37099      1.99993     7.36482    0.00624     9.37099
      C   22   -0.27196      1.99901     4.25758    0.01537     6.27196
      H   23    0.42899      0.00000     0.56842    0.00259     0.57101
      H   24    0.42995      0.00000     0.56771    0.00234     0.57005
      H   25    0.24705      0.00000     0.75141    0.00154     0.75295
      H   26    0.25442      0.00000     0.74389    0.00169     0.74558
      H   27    0.25442      0.00000     0.74389    0.00169     0.74558
      H   28    0.24705      0.00000     0.75141    0.00154     0.75295
      H   29    0.42899      0.00000     0.56842    0.00259     0.57101
      H   30    0.42995      0.00000     0.56771    0.00234     0.57005
      H   31    0.25431      0.00000     0.74339    0.00230     0.74569
      H   32    0.25431      0.00000     0.74339    0.00230     0.74569
 =======================================================================
   * Total *    0.00000     43.98429   117.59344    0.42227   162.00000

 Normal termination of Gaussian 16 at Sun Jul 21 13:20:37 2024.
