 Gaussian 16, Revision A.03,

 -------------------------------------------------------
 # opt=CalcFc B3LYP/6-31G** SCRF=(Solvent=water) scf=xqc
 -------------------------------------------------------

 ----------------------------------
 NVKGJHAQGWCWDI-UHFFFAOYSA-N_conf_3
 ----------------------------------
 Symbolic Z-matrix:
 Charge =  0 Multiplicity = 1

 SCF Done:  E(RB3LYP) =  -1248.11176214     A.U. after   12 cycles
 SCF Done:  E(RB3LYP) =  -1248.11704760     A.U. after   11 cycles
 SCF Done:  E(RB3LYP) =  -1248.11724246     A.U. after    9 cycles
 SCF Done:  E(RB3LYP) =  -1248.11724451     A.U. after    8 cycles
 SCF Done:  E(RB3LYP) =  -1248.11724484     A.U. after    7 cycles
 Optimization completed.
    -- Stationary point found.
 Normal termination of Gaussian 16 at Sun Jul 21 12:31:21 2024.

 ----------------------------------------------------------------------
 # freq B3LYP/6-31G** SCRF=(Solvent=water) volume NMR pop=NPA density=c
 urrent Geom=AllCheck Guess=Read
 ----------------------------------------------------------------------

 Structure from the checkpoint file:  "NVKGJHAQGWCWDI-UHFFFAOYSA-N_conf_3_1.chk"
 ----------------------------------
 NVKGJHAQGWCWDI-UHFFFAOYSA-N_conf_3
 ----------------------------------
 Charge =  0 Multiplicity = 1

 SCF Done:  E(RB3LYP) =  -1248.11724484     A.U. after    1 cycles

      1  N    Isotropic =   197.9888   Anisotropy =    73.5102

      2  C    Isotropic =    50.2813   Anisotropy =   161.5371

      3  C    Isotropic =    81.4178   Anisotropy =   133.9058

      4  C    Isotropic =    61.8661   Anisotropy =   158.2974

      5  C    Isotropic =    67.5041   Anisotropy =   154.9909

      6  C    Isotropic =    67.5859   Anisotropy =   154.8467

      7  C    Isotropic =    61.7479   Anisotropy =   158.4695

      8  C    Isotropic =    81.4097   Anisotropy =   133.8645

      9  C    Isotropic =    50.2714   Anisotropy =   161.5064

     10  N    Isotropic =   197.9806   Anisotropy =    73.1299

     11  C    Isotropic =    84.4114   Anisotropy =   130.4193

     12  C    Isotropic =    63.8081   Anisotropy =   138.6365

     13  C    Isotropic =    62.2991   Anisotropy =    13.3987

     14  F    Isotropic =   250.3020   Anisotropy =   130.3813

     15  F    Isotropic =   261.6684   Anisotropy =   113.1794

     16  F    Isotropic =   276.8522   Anisotropy =   124.2108

     17  C    Isotropic =    63.7314   Anisotropy =   138.7510

     18  C    Isotropic =    62.2843   Anisotropy =    13.4090

     19  F    Isotropic =   261.5088   Anisotropy =   113.2606

     20  F    Isotropic =   276.9021   Anisotropy =   124.3495

     21  F    Isotropic =   250.3897   Anisotropy =   130.3637

     22  C    Isotropic =    84.3505   Anisotropy =   130.1186

     23  H    Isotropic =    28.2665   Anisotropy =    12.5765

     24  H    Isotropic =    28.2727   Anisotropy =    11.9760

     25  H    Isotropic =    24.9788   Anisotropy =     5.3594

     26  H    Isotropic =    24.6458   Anisotropy =     8.4358

     27  H    Isotropic =    24.6147   Anisotropy =     8.5007

     28  H    Isotropic =    24.9719   Anisotropy =     5.3471

     29  H    Isotropic =    28.2752   Anisotropy =    12.6630

     30  H    Isotropic =    28.2669   Anisotropy =    12.1303

     31  H    Isotropic =    24.8051   Anisotropy =     9.3816

     32  H    Isotropic =    24.7995   Anisotropy =     9.3472

  Exact polarizability: 320.501  26.411 178.360  -0.406  -0.110 144.260
 Approx polarizability: 359.424  21.953 222.070   1.752   0.193 183.079

                      1                      2                      3
                      A                      A                      A
 Frequencies --     40.7090                43.9774                49.3090
 Red. masses --      8.1557                17.0153                 7.2859
 Frc consts  --      0.0080                 0.0194                 0.0104
 IR Inten    --      3.1841                 0.1655                 0.7801

                      4                      5                      6
                      A                      A                      A
 Frequencies --     51.7208                52.2013               119.9439
 Red. masses --     13.6449                 5.8869                 6.0064
 Frc consts  --      0.0215                 0.0095                 0.0509
 IR Inten    --      0.3369                 2.5527                 0.5792

                      7                      8                      9
                      A                      A                      A
 Frequencies --    132.2329               146.4338               156.2971
 Red. masses --      5.2302                 8.0086                 7.8090
 Frc consts  --      0.0539                 0.1012                 0.1124
 IR Inten    --      1.3399                 1.8531                 1.4674

                     10                     11                     12
                      A                      A                      A
 Frequencies --    190.6425               202.8818               240.8578
 Red. masses --      5.8947                 6.0570                 8.9783
 Frc consts  --      0.1262                 0.1469                 0.3069
 IR Inten    --      1.4343                 2.4443                 1.8167

                     13                     14                     15
                      A                      A                      A
 Frequencies --    301.9562               304.0146               315.6029
 Red. masses --      5.7246                 6.6363                 6.8598
 Frc consts  --      0.3075                 0.3614                 0.4026
 IR Inten    --     11.3437                 8.7431                 2.1368

                     16                     17                     18
                      A                      A                      A
 Frequencies --    333.7623               336.2078               340.8342
 Red. masses --      1.0789                 1.2319                 3.3134
 Frc consts  --      0.0708                 0.0820                 0.2268
 IR Inten    --     27.9848                29.0912                 2.3649

                     19                     20                     21
                      A                      A                      A
 Frequencies --    361.0170               362.7313               397.4486
 Red. masses --      7.7416                 8.1226                 4.2290
 Frc consts  --      0.5945                 0.6297                 0.3936
 IR Inten    --      0.6590                 1.8589                 0.7971

                     22                     23                     24
                      A                      A                      A
 Frequencies --    404.5603               450.7063               454.6577
 Red. masses --      4.7613                 3.9608                 3.8724
 Frc consts  --      0.4591                 0.4740                 0.4716
 IR Inten    --      3.8187                 4.8624                15.9735

                     25                     26                     27
                      A                      A                      A
 Frequencies --    489.4930               496.7501               529.0045
 Red. masses --      8.6233                 8.8737                 3.3751
 Frc consts  --      1.2174                 1.2901                 0.5565
 IR Inten    --      1.6216                10.2308               483.8652

                     28                     29                     30
                      A                      A                      A
 Frequencies --    540.6268               547.2229               563.7651
 Red. masses --      3.6627                 2.5484                 2.2598
 Frc consts  --      0.6307                 0.4496                 0.4232
 IR Inten    --     69.1377                82.0329               341.3938

                     31                     32                     33
                      A                      A                      A
 Frequencies --    570.6475               591.2818               594.9902
 Red. masses --      2.1823                 4.8445                 5.1484
 Frc consts  --      0.4187                 0.9979                 1.0738
 IR Inten    --    295.9876                18.8337                 8.4153

                     34                     35                     36
                      A                      A                      A
 Frequencies --    653.8447               655.0303               673.0690
 Red. masses --      4.4713                 4.6661                 8.5649
 Frc consts  --      1.1262                 1.1796                 2.2861
 IR Inten    --     52.4206                 6.0372                10.1746

                     37                     38                     39
                      A                      A                      A
 Frequencies --    674.7853               708.7819               748.7168
 Red. masses --      8.9576                 4.9953                 8.3826
 Frc consts  --      2.4031                 1.4786                 2.7686
 IR Inten    --     23.8928                 2.1724                 2.9298

                     40                     41                     42
                      A                      A                      A
 Frequencies --    750.6090               752.0269               757.7662
 Red. masses --      7.3528                 6.4806                 5.3048
 Frc consts  --      2.4408                 2.1594                 1.7947
 IR Inten    --      4.8166                 0.7429                 5.0059

                     43                     44                     45
                      A                      A                      A
 Frequencies --    839.3815               844.2430               879.9453
 Red. masses --      1.4917                 1.5337                 1.4461
 Frc consts  --      0.6192                 0.6441                 0.6597
 IR Inten    --     56.8381                27.5429                35.9622

                     46                     47                     48
                      A                      A                      A
 Frequencies --    880.4178               918.0006               927.9351
 Red. masses --      1.4448                 5.3219                 5.5806
 Frc consts  --      0.6598                 2.6424                 2.8312
 IR Inten    --     29.3067                63.1520                17.5181

                     49                     50                     51
                      A                      A                      A
 Frequencies --    957.0707               958.3032              1013.5958
 Red. masses --      1.2996                 1.3103                 7.0891
 Frc consts  --      0.7014                 0.7090                 4.2911
 IR Inten    --      1.7023                 0.1734                13.5369

                     52                     53                     54
                      A                      A                      A
 Frequencies --   1064.5270              1089.6501              1104.8555
 Red. masses --      3.4275                 2.4417                 1.6246
 Frc consts  --      2.2884                 1.7081                 1.1685
 IR Inten    --     53.1536               101.7816                12.3725

                     55                     56                     57
                      A                      A                      A
 Frequencies --   1108.9705              1138.8397              1144.8316
 Red. masses --      1.7245                12.4478                 7.9522
 Frc consts  --      1.2495                 9.5119                 6.1407
 IR Inten    --     57.8311               284.0003               346.2373

                     58                     59                     60
                      A                      A                      A
 Frequencies --   1164.7450              1168.2203              1182.1384
 Red. masses --      1.8876                 1.9324                 2.3287
 Frc consts  --      1.5088                 1.5538                 1.9174
 IR Inten    --    265.8222                21.8455               483.0381

                     61                     62                     63
                      A                      A                      A
 Frequencies --   1186.4866              1275.8939              1278.1589
 Red. masses --      2.6753                 2.4456                 3.4721
 Frc consts  --      2.2190                 2.3456                 3.3421
 IR Inten    --     12.4363               241.0601               149.9157

                     64                     65                     66
                      A                      A                      A
 Frequencies --   1281.7369              1283.1908              1313.9765
 Red. masses --      1.9469                 1.9230                 2.5592
 Frc consts  --      1.8844                 1.8656                 2.6033
 IR Inten    --    151.3474               124.6816                 9.6229

                     67                     68                     69
                      A                      A                      A
 Frequencies --   1353.5424              1355.4559              1358.4419
 Red. masses --      3.4307                 3.0112                 3.8950
 Frc consts  --      3.7032                 3.2595                 4.2349
 IR Inten    --     24.6826                37.1228               479.9140

                     70                     71                     72
                      A                      A                      A
 Frequencies --   1363.5352              1482.1293              1488.8786
 Red. masses --      6.6719                 3.3543                 3.4655
 Frc consts  --      7.3085                 4.3413                 4.5261
 IR Inten    --     59.1606               152.4092                14.9321

                     73                     74                     75
                      A                      A                      A
 Frequencies --   1530.9372              1559.9823              1612.5010
 Red. masses --      2.9325                 3.5814                 6.3174
 Frc consts  --      4.0496                 5.1350                 9.6780
 IR Inten    --    265.0826                 2.0438                24.4757

                     76                     77                     78
                      A                      A                      A
 Frequencies --   1617.7385              1655.7128              1657.8892
 Red. masses --      6.6098                 1.3891                 1.3675
 Frc consts  --     10.1919                 2.2437                 2.2146
 IR Inten    --      1.2172                23.7884                28.6783

                     79                     80                     81
                      A                      A                      A
 Frequencies --   1670.4535              1673.1697              3185.7351
 Red. masses --      2.9747                 3.5341                 1.0889
 Frc consts  --      4.8907                 5.8292                 6.5114
 IR Inten    --      4.4575               491.2798                25.1546

                     82                     83                     84
                      A                      A                      A
 Frequencies --   3186.2277              3208.2857              3208.6349
 Red. masses --      1.0888                 1.0936                 1.0938
 Frc consts  --      6.5125                 6.6324                 6.6349
 IR Inten    --     18.4485                17.9083                12.8336

                     85                     86                     87
                      A                      A                      A
 Frequencies --   3218.3053              3218.5467              3569.6565
 Red. masses --      1.0904                 1.0904                 1.0483
 Frc consts  --      6.6542                 6.6549                 7.8704
 IR Inten    --     13.6057                 4.5710                66.3464

                     88                     89                     90
                      A                      A                      A
 Frequencies --   3570.1916              3674.1353              3674.9924
 Red. masses --      1.0483                 1.0992                 1.0992
 Frc consts  --      7.8726                 8.7424                 8.7470
 IR Inten    --     46.7766                31.0574                31.4757

 - Thermochemistry -
 -------------------
 Temperature   298.150 Kelvin.  Pressure   1.00000 Atm.
 Atom     1 has atomic number  7 and mass  14.00307

 Molecular mass:   320.07482 amu.
 Principal axes and moments of inertia in atomic units:
                           1         2         3
     Eigenvalues --  4409.749078260.800049594.42423
           X            0.99916   0.04094  -0.00307
           Y           -0.04094   0.99916  -0.00085
           Z            0.00304   0.00097   0.99999
 This molecule is an asymmetric top.
 Rotational symmetry number  1.
 Warning -- assumption of classical behavior for rotation
           may cause significant error
 Rotational temperatures (Kelvin)      0.01964     0.01048     0.00903
 Rotational constants (GHZ):           0.40926     0.21847     0.18810
 Zero-point vibrational energy     587302.5 (Joules/Mol)
                                  140.36867 (Kcal/Mol)
 Warning -- explicit consideration of  33 degrees of freedom as
           vibrations may cause significant error
 Vibrational temperatures:     58.57    63.27    70.94    74.41    75.11
          (Kelvin)            172.57   190.25   210.69   224.88   274.29
                              291.90   346.54   434.45   437.41   454.08
                              480.21   483.73   490.38   519.42   521.89
                              571.84   582.07   648.47   654.15   704.27
                              714.71   761.12   777.84   787.33   811.13
                              821.03   850.72   856.06   940.74   942.44
                              968.40   970.87  1019.78  1077.24  1079.96
                             1082.00  1090.26  1207.68  1214.68  1266.05
                             1266.72  1320.80  1335.09  1377.01  1378.78
                             1458.34  1531.62  1567.76  1589.64  1595.56
                             1638.54  1647.16  1675.81  1680.81  1700.83
                             1707.09  1835.73  1838.99  1844.13  1846.23
                             1890.52  1947.45  1950.20  1954.49  1961.82
                             2132.45  2142.16  2202.68  2244.47  2320.03
                             2327.56  2382.20  2385.33  2403.41  2407.32
                             4583.56  4584.27  4616.01  4616.51  4630.42
                             4630.77  5135.94  5136.71  5286.26  5287.49

 Zero-point correction=                           0.223692 (Hartree/Particle)
 Thermal correction to Energy=                    0.242757
 Thermal correction to Enthalpy=                  0.243701
 Thermal correction to Gibbs Free Energy=         0.175858
 Sum of electronic and zero-point Energies=          -1247.893553
 Sum of electronic and thermal Energies=             -1247.874488
 Sum of electronic and thermal Enthalpies=           -1247.873544
 Sum of electronic and thermal Free Energies=        -1247.941386

                     E (Thermal)             CV                S
                      KCal/Mol        Cal/Mol-Kelvin    Cal/Mol-Kelvin
 Total                  152.332             73.889            142.786
 Electronic               0.000              0.000              0.000
 Translational            0.889              2.981             43.186
 Rotational               0.889              2.981             34.213
 Vibrational            150.555             67.927             65.388
 Vibration     1          0.594              1.981              5.224
 Vibration     2          0.595              1.980              5.071
 Vibration     3          0.595              1.978              4.845
 Vibration     4          0.596              1.977              4.750
 Vibration     5          0.596              1.977              4.732
 Vibration     6          0.609              1.933              3.101
 Vibration     7          0.612              1.921              2.913
 Vibration     8          0.617              1.907              2.718
 Vibration     9          0.620              1.896              2.594
 Vibration    10          0.634              1.853              2.222
 Vibration    11          0.639              1.836              2.107
 Vibration    12          0.658              1.778              1.797
 Vibration    13          0.694              1.670              1.406
 Vibration    14          0.695              1.666              1.395
 Vibration    15          0.703              1.644              1.333
 Vibration    16          0.715              1.608              1.242
 Vibration    17          0.717              1.603              1.230
 Vibration    18          0.720              1.594              1.208
 Vibration    19          0.735              1.553              1.118
 Vibration    20          0.737              1.549              1.110
 Vibration    21          0.764              1.476              0.972
 Vibration    22          0.770              1.460              0.946
 Vibration    23          0.809              1.359              0.794
 Vibration    24          0.813              1.351              0.782
 Vibration    25          0.845              1.273              0.685
 Vibration    26          0.852              1.257              0.666
 Vibration    27          0.884              1.186              0.589
 Vibration    28          0.896              1.160              0.564
 Vibration    29          0.902              1.146              0.550
 Vibration    30          0.920              1.110              0.516
 Vibration    31          0.927              1.095              0.503
 Vibration    32          0.949              1.050              0.465
 Vibration    33          0.953              1.042              0.458

 Optimization completed.
    -- Stationary point found.
 Normal termination of Gaussian 16 at Sun Jul 21 13:02:13 2024.
 Gaussian 16:  ES64L-G16RevA.03 25-Dec-2016

 ----------------------------------------------------------------------
 # TD(NStates=10, Root=1) B3LYP/6-31G** SCRF=(Solvent=water) volume pop
 =NPA density=current Geom=AllCheck Guess=Read
 ----------------------------------------------------------------------

 Structure from the checkpoint file:  "NVKGJHAQGWCWDI-UHFFFAOYSA-N_conf_3_2.chk"
 ----------------------------------
 NVKGJHAQGWCWDI-UHFFFAOYSA-N_conf_3
 ----------------------------------
 Charge =  0 Multiplicity = 1

                         Standard orientation:
 ---------------------------------------------------------------------
 Center     Atomic      Atomic             Coordinates (Angstroms)
 Number     Number       Type             X           Y           Z
 ---------------------------------------------------------------------
      1          7           0       -4.899529   -0.890904   -0.950797
      2          6           0       -3.533186   -0.674581   -0.829314
      3          6           0       -2.605312   -1.448535   -1.546659
      4          6           0       -1.244470   -1.175942   -1.462668
      5          6           0       -0.736058   -0.134552   -0.673209
      6          6           0        0.737448    0.137635   -0.670123
      7          6           0        1.248493    1.176734   -1.460971
      8          6           0        2.609533    1.449208   -1.541060
      9          6           0        3.534908    0.679158   -0.816309
     10          7           0        4.890878    0.977542   -0.834409
     11          6           0        3.039360   -0.365627   -0.016926
     12          6           0        1.672350   -0.630135    0.055040
     13          6           0        1.217860   -1.773733    0.927027
     14          9           0        0.727885   -2.810470    0.197841
     15          9           0        0.238482   -1.411634    1.788094
     16          9           0        2.222935   -2.281359    1.678759
     17          6           0       -1.673129    0.634133    0.048218
     18          6           0       -1.220417    1.773950    0.926085
     19          9           0       -0.248229    1.406335    1.793039
     20          9           0       -2.228774    2.283456    1.672152
     21          9           0       -0.721794    2.810366    0.202589
     22          6           0       -3.039878    0.369705   -0.027950
     23          1           0       -5.168461   -1.823516   -1.235363
     24          1           0       -5.464521   -0.554808   -0.182084
     25          1           0       -2.955533   -2.263744   -2.173692
     26          1           0       -0.548754   -1.789522   -2.025521
     27          1           0        0.555076    1.784745   -2.032677
     28          1           0        2.962290    2.261925   -2.169903
     29          1           0        5.213377    1.484250   -1.648164
     30          1           0        5.510323    0.214434   -0.595690
     31          1           0        3.731487   -0.970517    0.557443
     32          1           0       -3.734281    0.975532    0.542736
 ---------------------------------------------------------------------

 SCF Done:  E(RB3LYP) =  -1248.11724484     A.U. after    1 cycles

 Excitation energies and oscillator strengths:

 Excited State   1:      Singlet-A      4.2411 eV  292.34 nm  f=0.1657  <S**2>=0.000
      81 -> 82         0.69550
 This state for optimization and/or second-order correction.
 Total Energy, E(TD-HF/TD-DFT) =  -1247.96138888
 Copying the excited state density for this state as the 1-particle RhoCI density.

 Excited State   2:      Singlet-A      4.4760 eV  277.00 nm  f=0.0364  <S**2>=0.000
      80 -> 82         0.68242

 Excited State   3:      Singlet-A      4.6035 eV  269.33 nm  f=0.0241  <S**2>=0.000
      80 -> 82         0.10745
      80 -> 84        -0.10840
      81 -> 83         0.67853

 Excited State   4:      Singlet-A      4.8004 eV  258.28 nm  f=0.0841  <S**2>=0.000
      80 -> 83         0.59345
      81 -> 84        -0.34989

 Excited State   5:      Singlet-A      4.9174 eV  252.13 nm  f=0.4407  <S**2>=0.000
      80 -> 83         0.35478
      81 -> 84         0.60053

 Excited State   6:      Singlet-A      5.0942 eV  243.38 nm  f=0.0001  <S**2>=0.000
      80 -> 84         0.53604
      81 -> 85         0.45088

 Excited State   7:      Singlet-A      5.4298 eV  228.34 nm  f=0.0058  <S**2>=0.000
      78 -> 82        -0.23848
      79 -> 83         0.13114
      80 -> 82         0.10109
      80 -> 84        -0.38970
      81 -> 83        -0.11199
      81 -> 85         0.49074

 Excited State   8:      Singlet-A      5.4353 eV  228.11 nm  f=0.4532  <S**2>=0.000
      79 -> 82        -0.14476
      80 -> 85         0.67494

 Excited State   9:      Singlet-A      5.8253 eV  212.84 nm  f=0.4431  <S**2>=0.000
      78 -> 83         0.19911
      79 -> 82         0.65684
      80 -> 85         0.12644

 Excited State  10:      Singlet-A      5.9273 eV  209.17 nm  f=0.0153  <S**2>=0.000
      78 -> 82         0.57486
      79 -> 83         0.38146
      81 -> 85         0.10433

 The electronic state is 1-A.
 Alpha  occ. eigenvalues --  -24.72798 -24.72794 -24.72333 -24.72323 -24.72239
 Alpha  occ. eigenvalues --  -24.72233 -14.34342 -14.34340 -10.43351 -10.43346
 Alpha  occ. eigenvalues --  -10.23865 -10.23865 -10.21537 -10.21536 -10.20512
 Alpha  occ. eigenvalues --  -10.20485 -10.19721 -10.19720 -10.19670 -10.19667
 Alpha  occ. eigenvalues --  -10.19244 -10.19239  -1.30176  -1.30121  -1.21568
 Alpha  occ. eigenvalues --   -1.21497  -1.21190  -1.21102  -0.92416  -0.92340
 Alpha  occ. eigenvalues --   -0.87046  -0.84523  -0.77771  -0.77637  -0.76450
 Alpha  occ. eigenvalues --   -0.72182  -0.69989  -0.68713  -0.63100  -0.62925
 Alpha  occ. eigenvalues --   -0.62314  -0.60295  -0.58063  -0.57987  -0.57846
 Alpha  occ. eigenvalues --   -0.57627  -0.56677  -0.55131  -0.51650  -0.51517
 Alpha  occ. eigenvalues --   -0.50193  -0.49013  -0.48261  -0.46037  -0.45904
 Alpha  occ. eigenvalues --   -0.45821  -0.45736  -0.44545  -0.44290  -0.44284
 Alpha  occ. eigenvalues --   -0.43474  -0.42316  -0.41795  -0.41674  -0.40955
 Alpha  occ. eigenvalues --   -0.40675  -0.39887  -0.39858  -0.39761  -0.39350
 Alpha  occ. eigenvalues --   -0.38776  -0.38569  -0.35439  -0.35237  -0.35119
 Alpha  occ. eigenvalues --   -0.31729  -0.31166  -0.26554  -0.26162  -0.21586
 Alpha  occ. eigenvalues --   -0.20700
 Alpha virt. eigenvalues --   -0.02803  -0.01384  -0.00523   0.00651   0.08815
 Alpha virt. eigenvalues --    0.09165   0.10960   0.12063   0.12969   0.13230
 Alpha virt. eigenvalues --    0.13604   0.13719   0.14166   0.14500   0.17110

 Mulliken charges:
               1
     1  N   -0.619981
     2  C    0.275578
     3  C   -0.146797
     4  C   -0.117976
     5  C    0.004019
     6  C    0.003671
     7  C   -0.117098
     8  C   -0.145456
     9  C    0.275440
    10  N   -0.618528
    11  C   -0.162691
    12  C   -0.089514
    13  C    0.782634
    14  F   -0.281062
    15  F   -0.281533
    16  F   -0.282219
    17  C   -0.090091
    18  C    0.782219
    19  F   -0.281631
    20  F   -0.282397
    21  F   -0.281298
    22  C   -0.163755
    23  H    0.302666
    24  H    0.303867
    25  H    0.098365
    26  H    0.104470
    27  H    0.105186
    28  H    0.098866
    29  H    0.303428
    30  H    0.304397
    31  H    0.109199
    32  H    0.108022
 Sum of Mulliken charges =   0.00000

 Dipole moment (field-independent basis, Debye):
    X=              0.3340    Y=             -1.4178    Z=             -4.4469  Tot=              4.6794
 Quadrupole moment (field-independent basis, Debye-Ang):
   XX=            -53.6289   YY=           -125.0278   ZZ=           -121.5815
   XY=             16.0141   XZ=             -9.9303   YZ=             -0.5758

 Summary of Natural Population Analysis:

                                       Natural Population
                Natural  -----------------------------------------------
    Atom  No    Charge         Core      Valence    Rydberg      Total
 -----------------------------------------------------------------------
      N    1   -0.75460      1.99948     5.74439    0.01073     7.75460
      C    2    0.18967      1.99898     3.79335    0.01799     5.81033
      C    3   -0.32782      1.99904     4.31298    0.01580     6.32782
      C    4   -0.21297      1.99905     4.19847    0.01545     6.21297
      C    5   -0.01770      1.99897     3.99959    0.01914     6.01770
      C    6   -0.01538      1.99897     3.99723    0.01918     6.01538
      C    7   -0.21263      1.99905     4.19810    0.01548     6.21263
      C    8   -0.32625      1.99904     4.31143    0.01578     6.32625
      C    9    0.19038      1.99898     3.79266    0.01797     5.80962
      N   10   -0.75282      1.99948     5.74267    0.01067     7.75282
      C   11   -0.27116      1.99901     4.25679    0.01536     6.27116
      C   12   -0.21249      1.99879     4.19584    0.01785     6.21249
      C   13    1.11077      1.99905     2.81996    0.07022     4.88923
      F   14   -0.37721      1.99993     7.37124    0.00604     9.37721
      F   15   -0.37089      1.99993     7.36473    0.00624     9.37089
      F   16   -0.37240      1.99993     7.36663    0.00584     9.37240
      C   17   -0.21347      1.99879     4.19681    0.01787     6.21347
      C   18    1.11059      1.99905     2.82014    0.07023     4.88941
      F   19   -0.37117      1.99993     7.36501    0.00624     9.37117
      F   20   -0.37253      1.99993     7.36677    0.00583     9.37253
      F   21   -0.37716      1.99993     7.37119    0.00605     9.37716
      C   22   -0.27213      1.99901     4.25779    0.01534     6.27213
      H   23    0.42866      0.00000     0.56877    0.00258     0.57134
      H   24    0.42959      0.00000     0.56811    0.00230     0.57041
      H   25    0.24720      0.00000     0.75128    0.00152     0.75280
      H   26    0.25434      0.00000     0.74395    0.00171     0.74566
      H   27    0.25466      0.00000     0.74365    0.00169     0.74534
      H   28    0.24726      0.00000     0.75119    0.00154     0.75274
      H   29    0.42919      0.00000     0.56822    0.00259     0.57081
      H   30    0.43014      0.00000     0.56752    0.00234     0.56986
      H   31    0.25451      0.00000     0.74319    0.00230     0.74549
      H   32    0.25380      0.00000     0.74390    0.00229     0.74620
 =======================================================================
   * Total *   -0.00000     43.98430   117.59354    0.42217   162.00000

 Normal termination of Gaussian 16 at Sun Jul 21 13:32:50 2024.
