 Gaussian 16, Revision A.03,

 -------------------------------------------------------
 # opt=CalcFc B3LYP/6-31G** SCRF=(Solvent=water) scf=xqc
 -------------------------------------------------------

 ----------------------------------
 NVKGJHAQGWCWDI-UHFFFAOYSA-N_conf_1
 ----------------------------------
 Symbolic Z-matrix:
 Charge =  0 Multiplicity = 1

 SCF Done:  E(RB3LYP) =  -1248.11165516     A.U. after   12 cycles
 SCF Done:  E(RB3LYP) =  -1248.11701862     A.U. after   11 cycles
 SCF Done:  E(RB3LYP) =  -1248.11724617     A.U. after   10 cycles
 SCF Done:  E(RB3LYP) =  -1248.11725068     A.U. after    8 cycles
 SCF Done:  E(RB3LYP) =  -1248.11725193     A.U. after    8 cycles
 Optimization completed.
    -- Stationary point found.
 Normal termination of Gaussian 16 at Sun Jul 21 12:27:40 2024.

 ----------------------------------------------------------------------
 # freq B3LYP/6-31G** SCRF=(Solvent=water) volume NMR pop=NPA density=c
 urrent Geom=AllCheck Guess=Read
 ----------------------------------------------------------------------

 Structure from the checkpoint file:  "NVKGJHAQGWCWDI-UHFFFAOYSA-N_conf_1_1.chk"
 ----------------------------------
 NVKGJHAQGWCWDI-UHFFFAOYSA-N_conf_1
 ----------------------------------
 Charge =  0 Multiplicity = 1

 SCF Done:  E(RB3LYP) =  -1248.11725193     A.U. after    1 cycles

      1  N    Isotropic =   197.9897   Anisotropy =    73.4979

      2  C    Isotropic =    50.2824   Anisotropy =   161.5316

      3  C    Isotropic =    81.4034   Anisotropy =   133.9127

      4  C    Isotropic =    61.7635   Anisotropy =   158.4110

      5  C    Isotropic =    67.5200   Anisotropy =   154.9400

      6  C    Isotropic =    67.5200   Anisotropy =   154.9400

      7  C    Isotropic =    61.7635   Anisotropy =   158.4110

      8  C    Isotropic =    81.4034   Anisotropy =   133.9127

      9  C    Isotropic =    50.2824   Anisotropy =   161.5316

     10  N    Isotropic =   197.9897   Anisotropy =    73.4980

     11  C    Isotropic =    84.3556   Anisotropy =   130.1074

     12  C    Isotropic =    63.8259   Anisotropy =   138.6010

     13  C    Isotropic =    62.3040   Anisotropy =    13.3860

     14  F    Isotropic =   261.6833   Anisotropy =   113.1965

     15  F    Isotropic =   276.8781   Anisotropy =   124.3153

     16  F    Isotropic =   250.2724   Anisotropy =   130.4684

     17  C    Isotropic =    63.8259   Anisotropy =   138.6010

     18  C    Isotropic =    62.3040   Anisotropy =    13.3860

     19  F    Isotropic =   261.6833   Anisotropy =   113.1965

     20  F    Isotropic =   276.8781   Anisotropy =   124.3153

     21  F    Isotropic =   250.2724   Anisotropy =   130.4684

     22  C    Isotropic =    84.3556   Anisotropy =   130.1074

     23  H    Isotropic =    28.2735   Anisotropy =    11.9587

     24  H    Isotropic =    28.2643   Anisotropy =    12.5930

     25  H    Isotropic =    24.9696   Anisotropy =     5.3403

     26  H    Isotropic =    24.6128   Anisotropy =     8.4725

     27  H    Isotropic =    24.6128   Anisotropy =     8.4725

     28  H    Isotropic =    24.9696   Anisotropy =     5.3403

     29  H    Isotropic =    28.2735   Anisotropy =    11.9587

     30  H    Isotropic =    28.2643   Anisotropy =    12.5930

     31  H    Isotropic =    24.8062   Anisotropy =     9.3746

     32  H    Isotropic =    24.8062   Anisotropy =     9.3746

  Exact polarizability: 320.571 -26.725 178.813   0.000  -0.000 143.865
 Approx polarizability: 359.938 -20.595 222.037   0.000  -0.000 182.780

                      1                      2                      3
                      A                      A                      A
 Frequencies --     40.8231                43.9371                48.8922
 Red. masses --      8.0178                17.0074                 7.2430
 Frc consts  --      0.0079                 0.0193                 0.0102
 IR Inten    --      3.4490                 0.1980                 0.0015

                      4                      5                      6
                      A                      A                      A
 Frequencies --     51.6913                52.3311               119.8115
 Red. masses --     14.2827                 5.7189                 6.0513
 Frc consts  --      0.0225                 0.0092                 0.0512
 IR Inten    --      0.1724                 4.6594                 0.5103

                      7                      8                      9
                      A                      A                      A
 Frequencies --    132.0483               146.2914               156.3382
 Red. masses --      5.2647                 8.1298                 7.9848
 Frc consts  --      0.0541                 0.1025                 0.1150
 IR Inten    --      0.3773                 0.8039                 0.1576

                     10                     11                     12
                      A                      A                      A
 Frequencies --    191.2112               202.4983               240.8822
 Red. masses --      5.6985                 5.9944                 9.4553
 Frc consts  --      0.1228                 0.1448                 0.3232
 IR Inten    --      0.0242                 6.5822                 1.0993

                     13                     14                     15
                      A                      A                      A
 Frequencies --    301.7940               303.8957               315.5648
 Red. masses --      5.0630                 7.0334                 6.1867
 Frc consts  --      0.2717                 0.3827                 0.3630
 IR Inten    --     10.3974                 8.6906                 8.2373

                     16                     17                     18
                      A                      A                      A
 Frequencies --    333.5909               333.6598               339.5935
 Red. masses --      1.0771                 1.0868                 5.9735
 Frc consts  --      0.0706                 0.0713                 0.4059
 IR Inten    --     34.1097                21.0785                 0.2657

                     19                     20                     21
                      A                      A                      A
 Frequencies --    360.9262               362.6512               397.1842
 Red. masses --      7.6378                 8.0924                 4.1922
 Frc consts  --      0.5862                 0.6271                 0.3896
 IR Inten    --      0.2744                 1.2484                10.3572

                     22                     23                     24
                      A                      A                      A
 Frequencies --    403.8385               450.1857               454.4364
 Red. masses --      4.8654                 3.9837                 3.8517
 Frc consts  --      0.4675                 0.4757                 0.4687
 IR Inten    --      0.0048                 4.2258                 3.2641

                     25                     26                     27
                      A                      A                      A
 Frequencies --    489.2937               496.7783               528.0962
 Red. masses --      8.5465                 9.1715                 3.5635
 Frc consts  --      1.2055                 1.3336                 0.5855
 IR Inten    --      0.9202                 0.8978               435.7114

                     28                     29                     30
                      A                      A                      A
 Frequencies --    539.7773               554.2788               558.5401
 Red. masses --      2.9969                 3.2015                 2.1318
 Frc consts  --      0.5145                 0.5795                 0.3918
 IR Inten    --    126.0924               108.4860               162.8784

                     31                     32                     33
                      A                      A                      A
 Frequencies --    567.2735               593.4453               594.7107
 Red. masses --      2.2827                 4.0599                 5.3439
 Frc consts  --      0.4328                 0.8424                 1.1136
 IR Inten    --    452.6086                 2.5186                28.1983

                     34                     35                     36
                      A                      A                      A
 Frequencies --    653.2653               654.9636               672.9436
 Red. masses --      4.5301                 4.5176                 8.3592
 Frc consts  --      1.1390                 1.1418                 2.2303
 IR Inten    --      4.8574                51.6548                14.3696

                     37                     38                     39
                      A                      A                      A
 Frequencies --    674.6892               707.8644               748.4424
 Red. masses --      9.0483                 5.0821                 8.5246
 Frc consts  --      2.4267                 1.5004                 2.8135
 IR Inten    --     22.4230                 2.2544                 5.1839

                     40                     41                     42
                      A                      A                      A
 Frequencies --    749.6508               752.4962               758.1945
 Red. masses --      6.6994                 6.9505                 5.3664
 Frc consts  --      2.2182                 2.3189                 1.8176
 IR Inten    --      2.4203                 0.0219                 6.7490

                     43                     44                     45
                      A                      A                      A
 Frequencies --    839.4116               844.0443               880.3116
 Red. masses --      1.4945                 1.5316                 1.4432
 Frc consts  --      0.6204                 0.6429                 0.6590
 IR Inten    --     60.5938                24.8571                36.2808

                     46                     47                     48
                      A                      A                      A
 Frequencies --    880.3639               917.6254               927.9215
 Red. masses --      1.4456                 5.3185                 5.5851
 Frc consts  --      0.6601                 2.6386                 2.8334
 IR Inten    --     27.5610                76.3203                 8.5430

                     49                     50                     51
                      A                      A                      A
 Frequencies --    957.0290               958.5910              1013.6010
 Red. masses --      1.2988                 1.3111                 7.0930
 Frc consts  --      0.7009                 0.7098                 4.2935
 IR Inten    --      1.8954                 0.0857                16.2069

                     52                     53                     54
                      A                      A                      A
 Frequencies --   1064.3344              1088.8878              1103.7457
 Red. masses --      3.4165                 2.4063                 1.5870
 Frc consts  --      2.2803                 1.6810                 1.1391
 IR Inten    --     45.9439                99.7993                 1.2180

                     55                     56                     57
                      A                      A                      A
 Frequencies --   1106.9101              1138.7709              1144.8068
 Red. masses --      1.7937                12.4679                 8.0627
 Frc consts  --      1.2948                 9.5261                 6.2258
 IR Inten    --     68.3863               285.8056               344.7657

                     58                     59                     60
                      A                      A                      A
 Frequencies --   1164.6135              1167.9977              1181.4709
 Red. masses --      1.8432                 1.8798                 2.3771
 Frc consts  --      1.4730                 1.5109                 1.9550
 IR Inten    --    252.3425                19.2378               506.2419

                     61                     62                     63
                      A                      A                      A
 Frequencies --   1185.9546              1275.7464              1277.8956
 Red. masses --      2.7715                 2.4366                 3.1263
 Frc consts  --      2.2967                 2.3365                 3.0079
 IR Inten    --      3.9970               233.2606               122.9727

                     64                     65                     66
                      A                      A                      A
 Frequencies --   1281.3931              1282.9540              1313.8223
 Red. masses --      2.0592                 1.9390                 2.5232
 Frc consts  --      1.9921                 1.8804                 2.5661
 IR Inten    --    178.1482               133.1720                 8.2740

                     67                     68                     69
                      A                      A                      A
 Frequencies --   1353.1843              1354.4532              1358.0675
 Red. masses --      3.4256                 2.7941                 4.3969
 Frc consts  --      3.6958                 3.0201                 4.7780
 IR Inten    --     32.8734                37.9903               476.5437

                     70                     71                     72
                      A                      A                      A
 Frequencies --   1363.4975              1481.3730              1488.1979
 Red. masses --      6.7953                 3.3897                 3.5272
 Frc consts  --      7.4433                 4.3827                 4.6026
 IR Inten    --     52.0369               155.4297                13.7373

                     73                     74                     75
                      A                      A                      A
 Frequencies --   1530.5103              1559.5757              1612.4625
 Red. masses --      2.9294                 3.5704                 6.3087
 Frc consts  --      4.0430                 5.1166                 9.6643
 IR Inten    --    264.3674                 2.0364                23.6334

                     76                     77                     78
                      A                      A                      A
 Frequencies --   1617.8366              1655.4593              1655.9392
 Red. masses --      6.6254                 1.4315                 1.3259
 Frc consts  --     10.2172                 2.3114                 2.1421
 IR Inten    --      1.4879                 6.0856                49.1144

                     79                     80                     81
                      A                      A                      A
 Frequencies --   1670.5682              1673.2464              3185.6172
 Red. masses --      3.0177                 3.5398                 1.0890
 Frc consts  --      4.9620                 5.8391                 6.5114
 IR Inten    --      4.8565               492.2650                39.8775

                     82                     83                     84
                      A                      A                      A
 Frequencies --   3185.7114              3208.4565              3208.7353
 Red. masses --      1.0889                 1.0935                 1.0938
 Frc consts  --      6.5111                 6.6325                 6.6354
 IR Inten    --      3.6060                18.2175                12.1708

                     85                     86                     87
                      A                      A                      A
 Frequencies --   3218.4955              3218.6160              3569.6162
 Red. masses --      1.0904                 1.0904                 1.0483
 Frc consts  --      6.6548                 6.6551                 7.8701
 IR Inten    --     18.0148                 0.1033               106.7899

                     88                     89                     90
                      A                      A                      A
 Frequencies --   3569.7205              3674.1539              3674.1548
 Red. masses --      1.0484                 1.0992                 1.0992
 Frc consts  --      7.8709                 8.7425                 8.7425
 IR Inten    --      5.9733                37.5871                24.5136

 - Thermochemistry -
 -------------------
 Temperature   298.150 Kelvin.  Pressure   1.00000 Atm.
 Atom     1 has atomic number  7 and mass  14.00307

 Molecular mass:   320.07482 amu.
 Principal axes and moments of inertia in atomic units:
                           1         2         3
     Eigenvalues --  4410.564188266.400899596.10818
           X            0.99903  -0.04404   0.00000
           Y            0.04404   0.99903   0.00000
           Z           -0.00000  -0.00000   1.00000
 This molecule is an asymmetric top.
 Rotational symmetry number  1.
 Warning -- assumption of classical behavior for rotation
           may cause significant error
 Rotational temperatures (Kelvin)      0.01964     0.01048     0.00903
 Rotational constants (GHZ):           0.40919     0.21832     0.18807
 Zero-point vibrational energy     587154.9 (Joules/Mol)
                                  140.33339 (Kcal/Mol)
 Warning -- explicit consideration of  33 degrees of freedom as
           vibrations may cause significant error
 Vibrational temperatures:     58.74    63.22    70.34    74.37    75.29
          (Kelvin)            172.38   189.99   210.48   224.94   275.11
                              291.35   346.58   434.21   437.24   454.03
                              479.96   480.06   488.60   519.29   521.77
                              571.46   581.03   647.72   653.83   703.98
                              714.75   759.81   776.62   797.48   803.61
                              816.18   853.84   855.66   939.90   942.35
                              968.22   970.73  1018.46  1076.84  1078.58
                             1082.67  1090.87  1207.73  1214.39  1266.57
                             1266.65  1320.26  1335.07  1376.95  1379.20
                             1458.35  1531.34  1566.67  1588.04  1592.60
                             1638.44  1647.12  1675.62  1680.49  1699.87
                             1706.32  1835.51  1838.61  1843.64  1845.88
                             1890.30  1946.93  1948.76  1953.96  1961.77
                             2131.37  2141.18  2202.06  2243.88  2319.97
                             2327.71  2381.84  2382.53  2403.57  2407.43
                             4583.39  4583.53  4616.25  4616.65  4630.70
                             4630.87  5135.88  5136.03  5286.29  5286.29

 Zero-point correction=                           0.223635 (Hartree/Particle)
 Thermal correction to Energy=                    0.242711
 Thermal correction to Enthalpy=                  0.243655
 Thermal correction to Gibbs Free Energy=         0.175789
 Sum of electronic and zero-point Energies=          -1247.893616
 Sum of electronic and thermal Energies=             -1247.874541
 Sum of electronic and thermal Enthalpies=           -1247.873597
 Sum of electronic and thermal Free Energies=        -1247.941463

                     E (Thermal)             CV                S
                      KCal/Mol        Cal/Mol-Kelvin    Cal/Mol-Kelvin
 Total                  152.303             73.916            142.835
 Electronic               0.000              0.000              0.000
 Translational            0.889              2.981             43.186
 Rotational               0.889              2.981             34.214
 Vibrational            150.526             67.954             65.436
 Vibration     1          0.594              1.981              5.219
 Vibration     2          0.595              1.980              5.073
 Vibration     3          0.595              1.978              4.862
 Vibration     4          0.596              1.977              4.752
 Vibration     5          0.596              1.977              4.727
 Vibration     6          0.609              1.933              3.103
 Vibration     7          0.612              1.921              2.916
 Vibration     8          0.617              1.907              2.720
 Vibration     9          0.620              1.896              2.594
 Vibration    10          0.634              1.852              2.216
 Vibration    11          0.639              1.836              2.110
 Vibration    12          0.658              1.778              1.796
 Vibration    13          0.694              1.670              1.407
 Vibration    14          0.695              1.666              1.395
 Vibration    15          0.703              1.644              1.333
 Vibration    16          0.715              1.608              1.243
 Vibration    17          0.715              1.608              1.242
 Vibration    18          0.720              1.596              1.214
 Vibration    19          0.735              1.553              1.118
 Vibration    20          0.737              1.549              1.111
 Vibration    21          0.764              1.476              0.973
 Vibration    22          0.769              1.462              0.949
 Vibration    23          0.809              1.360              0.795
 Vibration    24          0.813              1.351              0.782
 Vibration    25          0.845              1.274              0.685
 Vibration    26          0.852              1.257              0.666
 Vibration    27          0.883              1.188              0.591
 Vibration    28          0.895              1.162              0.566
 Vibration    29          0.910              1.130              0.535
 Vibration    30          0.914              1.121              0.527
 Vibration    31          0.923              1.102              0.510
 Vibration    32          0.951              1.046              0.461
 Vibration    33          0.952              1.043              0.459

 Optimization completed.
    -- Stationary point found.
 Normal termination of Gaussian 16 at Sun Jul 21 12:55:24 2024.
 Gaussian 16:  ES64L-G16RevA.03 25-Dec-2016

 ----------------------------------------------------------------------
 # TD(NStates=10, Root=1) B3LYP/6-31G** SCRF=(Solvent=water) volume pop
 =NPA density=current Geom=AllCheck Guess=Read
 ----------------------------------------------------------------------

 Structure from the checkpoint file:  "NVKGJHAQGWCWDI-UHFFFAOYSA-N_conf_1_2.chk"
 ----------------------------------
 NVKGJHAQGWCWDI-UHFFFAOYSA-N_conf_1
 ----------------------------------
 Charge =  0 Multiplicity = 1

                         Standard orientation:
 ---------------------------------------------------------------------
 Center     Atomic      Atomic             Coordinates (Angstroms)
 Number     Number       Type             X           Y           Z
 ---------------------------------------------------------------------
      1          7           0       -4.901544    0.887180   -0.945071
      2          6           0       -3.534854    0.672247   -0.825170
      3          6           0       -2.608595    1.448057   -1.542608
      4          6           0       -1.247410    1.176817   -1.460408
      5          6           0       -0.736936    0.135034   -0.672726
      6          6           0        0.736936   -0.135034   -0.672726
      7          6           0        1.247410   -1.176817   -1.460408
      8          6           0        2.608594   -1.448057   -1.542608
      9          6           0        3.534854   -0.672247   -0.825170
     10          7           0        4.901544   -0.887180   -0.945071
     11          6           0        3.039499    0.372268   -0.025379
     12          6           0        1.672358    0.635320    0.049064
     13          6           0        1.217744    1.775539    0.925407
     14          9           0        0.242355    1.408922    1.789158
     15          9           0        2.224088    2.284202    1.674738
     16          9           0        0.722436    2.812487    0.200256
     17          6           0       -1.672358   -0.635320    0.049064
     18          6           0       -1.217744   -1.775539    0.925407
     19          9           0       -0.242355   -1.408922    1.789158
     20          9           0       -2.224088   -2.284202    1.674738
     21          9           0       -0.722436   -2.812487    0.200257
     22          6           0       -3.039499   -0.372268   -0.025379
     23          1           0       -5.465455    0.549725   -0.176164
     24          1           0       -5.171774    1.819747   -1.228548
     25          1           0       -2.960355    2.263577   -2.168374
     26          1           0       -0.552961    1.791669   -2.023428
     27          1           0        0.552961   -1.791669   -2.023428
     28          1           0        2.960355   -2.263577   -2.168374
     29          1           0        5.465455   -0.549726   -0.176164
     30          1           0        5.171774   -1.819747   -1.228547
     31          1           0        3.732611    0.979332    0.545565
     32          1           0       -3.732611   -0.979332    0.545565
 ---------------------------------------------------------------------

 SCF Done:  E(RB3LYP) =  -1248.11725193     A.U. after    1 cycles

 Excitation energies and oscillator strengths:

 Excited State   1:      Singlet-A      4.2368 eV  292.63 nm  f=0.1684  <S**2>=0.000
      81 -> 82         0.69559
 This state for optimization and/or second-order correction.
 Total Energy, E(TD-HF/TD-DFT) =  -1247.96155156
 Copying the excited state density for this state as the 1-particle RhoCI density.

 Excited State   2:      Singlet-A      4.4809 eV  276.69 nm  f=0.0359  <S**2>=0.000
      80 -> 82         0.68121

 Excited State   3:      Singlet-A      4.5996 eV  269.56 nm  f=0.0234  <S**2>=0.000
      80 -> 82         0.11418
      80 -> 84         0.10619
      81 -> 83         0.67803

 Excited State   4:      Singlet-A      4.8026 eV  258.16 nm  f=0.0977  <S**2>=0.000
      80 -> 83         0.57732
      81 -> 84         0.37550

 Excited State   5:      Singlet-A      4.9151 eV  252.25 nm  f=0.4328  <S**2>=0.000
      80 -> 83        -0.38028
      81 -> 84         0.58513

 Excited State   6:      Singlet-A      5.0960 eV  243.30 nm  f=0.0000  <S**2>=0.000
      80 -> 84         0.53391
      81 -> 85         0.45364

 Excited State   7:      Singlet-A      5.4302 eV  228.32 nm  f=0.0005  <S**2>=0.000
      78 -> 82         0.24089
      79 -> 83        -0.13197
      80 -> 82        -0.10246
      80 -> 84        -0.39467
      81 -> 83         0.11193
      81 -> 85         0.49080

 Excited State   8:      Singlet-A      5.4433 eV  227.78 nm  f=0.4467  <S**2>=0.000
      79 -> 82         0.14839
      80 -> 85         0.67850

 Excited State   9:      Singlet-A      5.8244 eV  212.87 nm  f=0.4446  <S**2>=0.000
      78 -> 83         0.19904
      79 -> 82         0.65624
      80 -> 85        -0.12948

 Excited State  10:      Singlet-A      5.9265 eV  209.20 nm  f=0.0162  <S**2>=0.000
      78 -> 82         0.57477
      79 -> 83         0.38122
      81 -> 85        -0.10477

 The electronic state is 1-A.
 Alpha  occ. eigenvalues --  -24.72799 -24.72799 -24.72332 -24.72331 -24.72240
 Alpha  occ. eigenvalues --  -24.72240 -14.34342 -14.34342 -10.43353 -10.43352
 Alpha  occ. eigenvalues --  -10.23866 -10.23866 -10.21540 -10.21540 -10.20517
 Alpha  occ. eigenvalues --  -10.20490 -10.19720 -10.19720 -10.19672 -10.19672
 Alpha  occ. eigenvalues --  -10.19244 -10.19244  -1.30179  -1.30125  -1.21572
 Alpha  occ. eigenvalues --   -1.21500  -1.21194  -1.21105  -0.92417  -0.92342
 Alpha  occ. eigenvalues --   -0.87049  -0.84525  -0.77775  -0.77639  -0.76452
 Alpha  occ. eigenvalues --   -0.72183  -0.69992  -0.68716  -0.63103  -0.62932
 Alpha  occ. eigenvalues --   -0.62309  -0.60299  -0.58066  -0.57992  -0.57849
 Alpha  occ. eigenvalues --   -0.57629  -0.56679  -0.55131  -0.51647  -0.51512
 Alpha  occ. eigenvalues --   -0.50198  -0.49023  -0.48264  -0.46034  -0.45909
 Alpha  occ. eigenvalues --   -0.45819  -0.45740  -0.44553  -0.44311  -0.44278
 Alpha  occ. eigenvalues --   -0.43436  -0.42316  -0.41909  -0.41639  -0.40961
 Alpha  occ. eigenvalues --   -0.40653  -0.39890  -0.39863  -0.39766  -0.39290
 Alpha  occ. eigenvalues --   -0.38928  -0.38413  -0.35504  -0.35191  -0.35169
 Alpha  occ. eigenvalues --   -0.31670  -0.31206  -0.26555  -0.26163  -0.21610
 Alpha  occ. eigenvalues --   -0.20688
 Alpha virt. eigenvalues --   -0.02808  -0.01387  -0.00532   0.00659   0.08847
 Alpha virt. eigenvalues --    0.09145   0.10947   0.12085   0.13035   0.13088
 Alpha virt. eigenvalues --    0.13660   0.13670   0.14097   0.14568   0.17097

 Mulliken charges:
               1
     1  N   -0.619397
     2  C    0.275690
     3  C   -0.146222
     4  C   -0.117509
     5  C    0.003966
     6  C    0.003966
     7  C   -0.117509
     8  C   -0.146222
     9  C    0.275690
    10  N   -0.619397
    11  C   -0.163192
    12  C   -0.090075
    13  C    0.782471
    14  F   -0.281572
    15  F   -0.282320
    16  F   -0.281223
    17  C   -0.090075
    18  C    0.782471
    19  F   -0.281572
    20  F   -0.282320
    21  F   -0.281223
    22  C   -0.163192
    23  H    0.304191
    24  H    0.303006
    25  H    0.098821
    26  H    0.104911
    27  H    0.104911
    28  H    0.098821
    29  H    0.304191
    30  H    0.303006
    31  H    0.108454
    32  H    0.108454
 Sum of Mulliken charges =  -0.00000

 Dipole moment (field-independent basis, Debye):
    X=             -0.0000    Y=              0.0000    Z=             -2.6606  Tot=              2.6606
 Quadrupole moment (field-independent basis, Debye-Ang):
   XX=            -55.5988   YY=           -122.0444   ZZ=           -124.8799
   XY=            -23.6021   XZ=              0.0000   YZ=             -0.0000

 Summary of Natural Population Analysis:

                                       Natural Population
                Natural  -----------------------------------------------
    Atom  No    Charge         Core      Valence    Rydberg      Total
 -----------------------------------------------------------------------
      N    1   -0.75370      1.99948     5.74349    0.01072     7.75370
      C    2    0.18993      1.99898     3.79310    0.01798     5.81007
      C    3   -0.32710      1.99904     4.31227    0.01579     6.32710
      C    4   -0.21241      1.99905     4.19791    0.01545     6.21241
      C    5   -0.01682      1.99897     3.99867    0.01917     6.01682
      C    6   -0.01682      1.99897     3.99867    0.01917     6.01682
      C    7   -0.21241      1.99905     4.19791    0.01545     6.21241
      C    8   -0.32710      1.99904     4.31227    0.01579     6.32710
      C    9    0.18993      1.99898     3.79310    0.01798     5.81007
      N   10   -0.75370      1.99948     5.74349    0.01072     7.75370
      C   11   -0.27136      1.99901     4.25701    0.01534     6.27136
      C   12   -0.21314      1.99879     4.19649    0.01786     6.21314
      C   13    1.11066      1.99905     2.82007    0.07022     4.88934
      F   14   -0.37108      1.99993     7.36491    0.00624     9.37108
      F   15   -0.37248      1.99993     7.36672    0.00584     9.37248
      F   16   -0.37718      1.99993     7.37121    0.00605     9.37718
      C   17   -0.21314      1.99879     4.19649    0.01786     6.21314
      C   18    1.11066      1.99905     2.82007    0.07022     4.88934
      F   19   -0.37108      1.99993     7.36491    0.00624     9.37108
      F   20   -0.37248      1.99993     7.36672    0.00584     9.37248
      F   21   -0.37718      1.99993     7.37121    0.00605     9.37718
      C   22   -0.27136      1.99901     4.25701    0.01534     6.27136
      H   23    0.42979      0.00000     0.56791    0.00230     0.57021
      H   24    0.42887      0.00000     0.56856    0.00257     0.57113
      H   25    0.24741      0.00000     0.75107    0.00152     0.75259
      H   26    0.25458      0.00000     0.74371    0.00171     0.74542
      H   27    0.25458      0.00000     0.74371    0.00171     0.74542
      H   28    0.24741      0.00000     0.75107    0.00152     0.75259
      H   29    0.42979      0.00000     0.56791    0.00230     0.57021
      H   30    0.42887      0.00000     0.56856    0.00257     0.57113
      H   31    0.25401      0.00000     0.74370    0.00229     0.74599
      H   32    0.25401      0.00000     0.74370    0.00229     0.74599
 =======================================================================
   * Total *   -0.00000     43.98430   117.59363    0.42207   162.00000

 Normal termination of Gaussian 16 at Sun Jul 21 13:22:01 2024.
