 Gaussian 16, Revision A.03,

 -------------------------------------------------------
 # opt=CalcFc B3LYP/6-31G** SCRF=(Solvent=water) scf=xqc
 -------------------------------------------------------

 ----------------------------------
 VHRGRCVQAFMJIZ-UHFFFAOYSA-N_conf_3
 ----------------------------------
 Symbolic Z-matrix:
 Charge =  0 Multiplicity = 1

 SCF Done:  E(RB3LYP) =  -308.481994567     A.U. after   11 cycles
 SCF Done:  E(RB3LYP) =  -308.484895164     A.U. after    9 cycles
 SCF Done:  E(RB3LYP) =  -308.484946150     A.U. after    8 cycles
 SCF Done:  E(RB3LYP) =  -308.484946709     A.U. after    7 cycles
 Optimization completed.
    -- Stationary point found.
 Normal termination of Gaussian 16 at Tue Jul  9 18:42:04 2024.

 ----------------------------------------------------------------------
 # freq B3LYP/6-31G** SCRF=(Solvent=water) volume NMR pop=NPA density=c
 urrent Geom=AllCheck Guess=Read
 ----------------------------------------------------------------------

 Structure from the checkpoint file:  "VHRGRCVQAFMJIZ-UHFFFAOYSA-N_conf_3_1.chk"
 ----------------------------------
 VHRGRCVQAFMJIZ-UHFFFAOYSA-N_conf_3
 ----------------------------------
 Charge =  0 Multiplicity = 1

 SCF Done:  E(RB3LYP) =  -308.484946709     A.U. after    1 cycles

      1  N    Isotropic =   232.6992   Anisotropy =    32.9870

      2  C    Isotropic =   145.9942   Anisotropy =    37.8720

      3  C    Isotropic =   157.9695   Anisotropy =    28.9906

      4  C    Isotropic =   164.2416   Anisotropy =    18.4134

      5  C    Isotropic =   153.2409   Anisotropy =    30.5564

      6  C    Isotropic =   147.7964   Anisotropy =    37.0953

      7  N    Isotropic =   230.9079   Anisotropy =    26.7521

      8  H    Isotropic =    31.0663   Anisotropy =    15.4797

      9  H    Isotropic =    31.5953   Anisotropy =    12.0436

     10  H    Isotropic =    28.9160   Anisotropy =     5.9876

     11  H    Isotropic =    29.3645   Anisotropy =     5.3014

     12  H    Isotropic =    30.5115   Anisotropy =     5.0998

     13  H    Isotropic =    30.2684   Anisotropy =     4.4297

     14  H    Isotropic =    30.4277   Anisotropy =     7.4733

     15  H    Isotropic =    30.4903   Anisotropy =     5.9885

     16  H    Isotropic =    30.3983   Anisotropy =     4.7699

     17  H    Isotropic =    30.3350   Anisotropy =     6.4769

     18  H    Isotropic =    29.4565   Anisotropy =     5.6641

     19  H    Isotropic =    28.9983   Anisotropy =     6.1586

     20  H    Isotropic =    31.4817   Anisotropy =    12.6308

     21  H    Isotropic =    31.4828   Anisotropy =    12.6184

  Exact polarizability:  97.042  -1.763  82.911   1.366   1.097  79.538
 Approx polarizability:  94.980  -1.277  90.490   0.193   1.432  88.349

                      1                      2                      3
                      A                      A                      A
 Frequencies --     67.3777                79.7444                86.8188
 Red. masses --      1.7916                 1.9494                 3.1486
 Frc consts  --      0.0048                 0.0073                 0.0140
 IR Inten    --      9.5733                 4.2836                 0.4988

                      4                      5                      6
                      A                      A                      A
 Frequencies --    136.0637               205.9378               254.4767
 Red. masses --      2.4984                 2.4466                 1.4402
 Frc consts  --      0.0273                 0.0611                 0.0550
 IR Inten    --      2.0602                 2.4917                27.3798

                      7                      8                      9
                      A                      A                      A
 Frequencies --    273.6767               299.8781               318.9855
 Red. masses --      1.5530                 1.1605                 3.1471
 Frc consts  --      0.0685                 0.0615                 0.1887
 IR Inten    --     45.3846                70.1369                 6.7723

                     10                     11                     12
                      A                      A                      A
 Frequencies --    438.9525               520.1224               741.0055
 Red. masses --      3.0474                 2.7647                 1.1619
 Frc consts  --      0.3460                 0.4407                 0.3759
 IR Inten    --     11.5218                 1.7437                 6.6991

                     13                     14                     15
                      A                      A                      A
 Frequencies --    769.8647               828.6656               892.2907
 Red. masses --      1.1292                 1.3616                 1.5571
 Frc consts  --      0.3943                 0.5509                 0.7304
 IR Inten    --      2.4766                26.3676               139.1073

                     16                     17                     18
                      A                      A                      A
 Frequencies --    899.1460               938.1032               983.1068
 Red. masses --      1.5463                 1.5646                 2.6171
 Frc consts  --      0.7366                 0.8112                 1.4903
 IR Inten    --    119.2971               114.7428                19.1204

                     19                     20                     21
                      A                      A                      A
 Frequencies --    983.5252              1038.2539              1069.4426
 Red. masses --      1.5534                 1.5942                 2.5599
 Frc consts  --      0.8853                 1.0125                 1.7250
 IR Inten    --     43.1091                16.6342                 4.8095

                     22                     23                     24
                      A                      A                      A
 Frequencies --   1078.0197              1088.2243              1115.0717
 Red. masses --      2.0931                 2.2807                 1.5906
 Frc consts  --      1.4331                 1.5913                 1.1652
 IR Inten    --     20.5997                 0.4336                15.3093

                     25                     26                     27
                      A                      A                      A
 Frequencies --   1172.8121              1195.0406              1272.6247
 Red. masses --      1.5065                 1.6397                 1.4069
 Frc consts  --      1.2209                 1.3797                 1.3425
 IR Inten    --     13.2962                 7.6354                 3.6607

                     28                     29                     30
                      A                      A                      A
 Frequencies --   1298.5603              1321.1224              1332.1073
 Red. masses --      1.3010                 1.2276                 1.1346
 Frc consts  --      1.2926                 1.2624                 1.1862
 IR Inten    --      1.3626                 1.1077                 5.7201

                     31                     32                     33
                      A                      A                      A
 Frequencies --   1342.5419              1357.2456              1392.7101
 Red. masses --      1.1996                 1.1950                 1.2710
 Frc consts  --      1.2739                 1.2970                 1.4525
 IR Inten    --      5.9524                 4.8012                 1.9323

                     34                     35                     36
                      A                      A                      A
 Frequencies --   1405.7240              1410.9487              1437.5229
 Red. masses --      1.3666                 1.3958                 1.4915
 Frc consts  --      1.5911                 1.6372                 1.8159
 IR Inten    --      0.3848                 2.5816                22.3109

                     37                     38                     39
                      A                      A                      A
 Frequencies --   1484.3042              1491.4036              1505.0127
 Red. masses --      1.0806                 1.0847                 1.0905
 Frc consts  --      1.4027                 1.4215                 1.4553
 IR Inten    --      0.7520                 0.3130                 2.6475

                     40                     41                     42
                      A                      A                      A
 Frequencies --   1509.7640              1527.3824              1656.0534
 Red. masses --      1.0939                 1.0927                 1.0872
 Frc consts  --      1.4691                 1.5019                 1.7568
 IR Inten    --      0.8345                 1.9201                35.6612

                     43                     44                     45
                      A                      A                      A
 Frequencies --   1660.3259              2953.8769              3009.4574
 Red. masses --      1.0866                 1.0721                 1.0592
 Frc consts  --      1.7648                 5.5117                 5.6521
 IR Inten    --     31.6535               116.4609                34.9047

                     46                     47                     48
                      A                      A                      A
 Frequencies --   3015.1450              3022.8815              3029.2679
 Red. masses --      1.0632                 1.0608                 1.0638
 Frc consts  --      5.6947                 5.7109                 5.7518
 IR Inten    --     24.0377                71.7423                71.0344

                     49                     50                     51
                      A                      A                      A
 Frequencies --   3042.4278              3045.9730              3049.3059
 Red. masses --      1.0909                 1.0969                 1.0988
 Frc consts  --      5.9496                 5.9962                 6.0197
 IR Inten    --     45.9390                25.1968                13.4952

                     52                     53                     54
                      A                      A                      A
 Frequencies --   3071.5184              3079.2835              3467.7399
 Red. masses --      1.1048                 1.1037                 1.0502
 Frc consts  --      6.1410                 6.1658                 7.4407
 IR Inten    --    207.6878               105.1135                 1.7583

                     55                     56                     57
                      A                      A                      A
 Frequencies --   3474.8833              3544.4860              3552.4054
 Red. masses --      1.0510                 1.0914                 1.0912
 Frc consts  --      7.4773                 8.0786                 8.1132
 IR Inten    --      2.0675                 0.2909                 0.2359

 - Thermochemistry -
 -------------------
 Temperature   298.150 Kelvin.  Pressure   1.00000 Atm.
 Atom     1 has atomic number  7 and mass  14.00307

 Molecular mass:   102.11570 amu.
 Principal axes and moments of inertia in atomic units:
                           1         2         3
     Eigenvalues --   248.738182140.262792279.45345
           X            0.99996  -0.00381   0.00813
           Y            0.00384   0.99998  -0.00461
           Z           -0.00812   0.00464   0.99996
 This molecule is an asymmetric top.
 Rotational symmetry number  1.
 Rotational temperatures (Kelvin)      0.34821     0.04047     0.03800
 Rotational constants (GHZ):           7.25559     0.84323     0.79174
 Zero-point vibrational energy     515821.5 (Joules/Mol)
                                  123.28429 (Kcal/Mol)
 Warning -- explicit consideration of  11 degrees of freedom as
           vibrations may cause significant error
 Vibrational temperatures:     96.94   114.73   124.91   195.77   296.30
          (Kelvin)            366.14   393.76   431.46   458.95   631.55
                              748.34  1066.14  1107.66  1192.26  1283.81
                             1293.67  1349.72  1414.47  1415.07  1493.82
                             1538.69  1551.03  1565.71  1604.34  1687.42
                             1719.40  1831.02  1868.34  1900.80  1916.61
                             1931.62  1952.77  2003.80  2022.52  2030.04
                             2068.27  2135.58  2145.80  2165.38  2172.21
                             2197.56  2382.69  2388.84  4249.97  4329.94
                             4338.12  4349.25  4358.44  4377.38  4382.48
                             4387.27  4419.23  4430.40  4989.30  4999.58
                             5099.72  5111.12

 Zero-point correction=                           0.196466 (Hartree/Particle)
 Thermal correction to Energy=                    0.205869
 Thermal correction to Enthalpy=                  0.206813
 Thermal correction to Gibbs Free Energy=         0.161860
 Sum of electronic and zero-point Energies=           -308.288481
 Sum of electronic and thermal Energies=              -308.279078
 Sum of electronic and thermal Enthalpies=            -308.278134
 Sum of electronic and thermal Free Energies=         -308.323086

                     E (Thermal)             CV                S
                      KCal/Mol        Cal/Mol-Kelvin    Cal/Mol-Kelvin
 Total                  129.184             32.923             94.610
 Electronic               0.000              0.000              0.000
 Translational            0.889              2.981             39.780
 Rotational               0.889              2.981             28.586
 Vibrational            127.407             26.962             26.244
 Vibration     1          0.598              1.970              4.229
 Vibration     2          0.600              1.963              3.897
 Vibration     3          0.601              1.958              3.731
 Vibration     4          0.614              1.917              2.858
 Vibration     5          0.640              1.831              2.079
 Vibration     6          0.665              1.755              1.699
 Vibration     7          0.676              1.722              1.573
 Vibration     8          0.692              1.674              1.418
 Vibration     9          0.705              1.637              1.315
 Vibration    10          0.799              1.385              0.830
 Vibration    11          0.875              1.205              0.610

 Optimization completed.
    -- Stationary point found.
 Normal termination of Gaussian 16 at Tue Jul  9 18:59:56 2024.
 Gaussian 16:  EM64L-G16RevA.03 25-Dec-2016

 ----------------------------------------------------------------------
 # TD(NStates=10, Root=1) B3LYP/6-31G** SCRF=(Solvent=water) volume pop
 =NPA density=current Geom=AllCheck Guess=Read
 ----------------------------------------------------------------------

 Structure from the checkpoint file:  "VHRGRCVQAFMJIZ-UHFFFAOYSA-N_conf_3_2.chk"
 ----------------------------------
 VHRGRCVQAFMJIZ-UHFFFAOYSA-N_conf_3
 ----------------------------------
 Charge =  0 Multiplicity = 1

                         Standard orientation:
 ---------------------------------------------------------------------
 Center     Atomic      Atomic             Coordinates (Angstroms)
 Number     Number       Type             X           Y           Z
 ---------------------------------------------------------------------
      1          7           0        3.414081   -0.772012   -0.204865
      2          6           0        2.470098    0.282481    0.200259
      3          6           0        1.042148   -0.071277   -0.219840
      4          6           0        0.023565    1.014745    0.153050
      5          6           0       -1.413082    0.735967   -0.319167
      6          6           0       -2.096708   -0.454664    0.371614
      7          7           0       -3.491882   -0.701412   -0.024595
      8          1           0        4.354911   -0.499759    0.074727
      9          1           0        3.212907   -1.613985    0.333455
     10          1           0        2.484091    0.490966    1.284462
     11          1           0        2.773344    1.212909   -0.296882
     12          1           0        1.025571   -0.241277   -1.304492
     13          1           0        0.764599   -1.026040    0.247232
     14          1           0        0.354728    1.969764   -0.276187
     15          1           0        0.024099    1.157263    1.243189
     16          1           0       -1.416639    0.568833   -1.406001
     17          1           0       -2.025581    1.631128   -0.143779
     18          1           0       -2.077390   -0.299858    1.458733
     19          1           0       -1.532811   -1.375502    0.182304
     20          1           0       -3.523098   -0.855343   -1.031951
     21          1           0       -4.030249    0.151361    0.125909
 ---------------------------------------------------------------------

 SCF Done:  E(RB3LYP) =  -308.484946709     A.U. after    1 cycles

 Excitation energies and oscillator strengths:

 Excited State   1:      Singlet-A      7.4695 eV  165.99 nm  f=0.0179  <S**2>=0.000
      28 -> 30        -0.22120
      28 -> 31        -0.22858
      29 -> 30         0.34337
      29 -> 31         0.50709
      29 -> 32        -0.11307
 This state for optimization and/or second-order correction.
 Total Energy, E(TD-HF/TD-DFT) =  -308.210447294
 Copying the excited state density for this state as the 1-particle RhoCI density.

 Excited State   2:      Singlet-A      7.4759 eV  165.84 nm  f=0.0132  <S**2>=0.000
      28 -> 30         0.42763
      28 -> 31        -0.39476
      28 -> 32        -0.14848
      29 -> 30         0.29827
      29 -> 31        -0.19281

 Excited State   3:      Singlet-A      8.1631 eV  151.88 nm  f=0.0024  <S**2>=0.000
      28 -> 30        -0.13987
      28 -> 31         0.16569
      29 -> 30         0.44012
      29 -> 31        -0.16601
      29 -> 32         0.46544

 Excited State   4:      Singlet-A      8.2591 eV  150.12 nm  f=0.0096  <S**2>=0.000
      28 -> 30         0.42082
      28 -> 31         0.16163
      28 -> 32         0.46642
      29 -> 31         0.19873
      29 -> 32         0.16602

 Excited State   5:      Singlet-A      8.4222 eV  147.21 nm  f=0.0050  <S**2>=0.000
      28 -> 31         0.45676
      29 -> 30         0.29108
      29 -> 32        -0.43213

 Excited State   6:      Singlet-A      8.4339 eV  147.01 nm  f=0.0061  <S**2>=0.000
      28 -> 30        -0.24937
      28 -> 31        -0.16459
      28 -> 32         0.47485
      29 -> 31        -0.36498
      29 -> 32        -0.17178

 Excited State   7:      Singlet-A      8.5832 eV  144.45 nm  f=0.0232  <S**2>=0.000
      28 -> 33        -0.17097
      28 -> 34         0.17181
      29 -> 33         0.56440
      29 -> 34        -0.29366
      29 -> 37         0.10614

 Excited State   8:      Singlet-A      8.6853 eV  142.75 nm  f=0.0166  <S**2>=0.000
      28 -> 33         0.57504
      28 -> 34         0.10326
      28 -> 36         0.17208
      29 -> 33         0.24249
      29 -> 34         0.19656
      29 -> 36         0.11317

 Excited State   9:      Singlet-A      8.8961 eV  139.37 nm  f=0.0378  <S**2>=0.000
      28 -> 33        -0.24215
      28 -> 34        -0.23682
      29 -> 33         0.27827
      29 -> 34         0.52145
      29 -> 36        -0.10231
      29 -> 37        -0.10736

 Excited State  10:      Singlet-A      9.1044 eV  136.18 nm  f=0.0625  <S**2>=0.000
      28 -> 33        -0.13637
      28 -> 34         0.60599
      28 -> 37         0.11252
      29 -> 34         0.26281
      29 -> 37         0.10116

 The electronic state is 1-A.
 Alpha  occ. eigenvalues --  -14.30908 -14.30823 -10.20061 -10.20002 -10.17715
 Alpha  occ. eigenvalues --  -10.17407 -10.17405  -0.87418  -0.87226  -0.78321
 Alpha  occ. eigenvalues --   -0.71511  -0.64289  -0.59659  -0.56632  -0.49108
 Alpha  occ. eigenvalues --   -0.47832  -0.45825  -0.44232  -0.42072  -0.41047
 Alpha  occ. eigenvalues --   -0.39347  -0.36850  -0.35935  -0.34674  -0.32496
 Alpha  occ. eigenvalues --   -0.32108  -0.31481  -0.23644  -0.23383
 Alpha virt. eigenvalues --    0.08928   0.08961   0.10224   0.11921   0.12642
 Alpha virt. eigenvalues --    0.14766   0.16000   0.16422   0.17683   0.18609
 Alpha virt. eigenvalues --    0.20024   0.20290   0.20747   0.21675   0.22119

 Mulliken charges:
               1
     1  N   -0.642365
     2  C   -0.052822
     3  C   -0.171994
     4  C   -0.188490
     5  C   -0.138575
     6  C   -0.094246
     7  N   -0.036844
     8  H    0.250624
     9  H    0.248289
    10  H    0.082652
    11  H    0.102322
    12  H    0.099128
    13  H    0.100897
    14  H    0.116525
    15  H    0.106922
    16  H    0.059588
    17  H    0.052883
    18  H    0.100105
    19  H    0.099985
    20  H   -0.047377
    21  H   -0.047207
 Sum of Mulliken charges =  -0.00000

 Dipole moment (field-independent basis, Debye):
    X=              1.8443    Y=             -0.0646    Z=              2.5260  Tot=              3.1282
 Quadrupole moment (field-independent basis, Debye-Ang):
   XX=            -51.6025   YY=            -46.9880   ZZ=            -50.4214
   XY=              2.4120   XZ=              3.4874   YZ=             -3.2885

 Summary of Natural Population Analysis:

                                       Natural Population
                Natural  -----------------------------------------------
    Atom  No    Charge         Core      Valence    Rydberg      Total
 -----------------------------------------------------------------------
      N    1   -0.92468      1.99968     5.91020    0.01479     7.92468
      C    2   -0.25914      1.99936     4.24644    0.01335     6.25914
      C    3   -0.47792      1.99933     4.46597    0.01262     6.47792
      C    4   -0.46324      1.99931     4.45185    0.01208     6.46324
      C    5   -0.47144      1.99926     4.45511    0.01708     6.47144
      C    6   -0.37015      1.99936     4.34828    0.02251     6.37015
      N    7   -0.39492      1.99937     5.36534    0.03021     7.39492
      H    8    0.38927      0.00000     0.60745    0.00328     0.61073
      H    9    0.38187      0.00000     0.61452    0.00361     0.61813
      H   10    0.20276      0.00000     0.79403    0.00321     0.79724
      H   11    0.22421      0.00000     0.77357    0.00222     0.77579
      H   12    0.23549      0.00000     0.76117    0.00334     0.76451
      H   13    0.22956      0.00000     0.76832    0.00213     0.77044
      H   14    0.25505      0.00000     0.74314    0.00181     0.74495
      H   15    0.23861      0.00000     0.75910    0.00230     0.76139
      H   16    0.20888      0.00000     0.76677    0.02435     0.79112
      H   17    0.21204      0.00000     0.76224    0.02573     0.78796
      H   18    0.23053      0.00000     0.75022    0.01924     0.76947
      H   19    0.22847      0.00000     0.75244    0.01909     0.77153
      H   20    0.16233      0.00000     0.74915    0.08852     0.83767
      H   21    0.16201      0.00000     0.74979    0.08819     0.83799
 =======================================================================
   * Total *   -0.00040     13.99565    43.59508    0.40968    58.00040

 1\1\GINC-CN33\SP\RB3LYP TD-FC\6-31G(d,p)\C5H14N2\QDUEZ\09-Jul-2024\0\\
 # TD(NStates=10, Root=1) B3LYP/6-31G** SCRF=(Solvent=water) volume pop
 =NPA density=current Geom=AllCheck Guess=Read\\VHRGRCVQAFMJIZ-UHFFFAOY
 SA-N_conf_3\\0,1\N,0,3.3874576568,-0.2221022919,-0.7384849481\C,0,2.40
 68472281,0.5486810382,0.043487133\C,0,0.9803819241,0.0872693166,-0.261
 4175665\C,0,-0.0823133287,0.8843560188,0.5075659231\C,0,-1.5347147201,
 0.5058036257,0.1730710466\C,0,-1.9501575527,-0.9047755111,0.6200613063
 \N,0,-3.3530965049,-1.2640492873,0.3610966133\H,0,4.3231875117,0.11884

 Normal termination of Gaussian 16 at Tue Jul  9 19:21:57 2024.
