 Gaussian 16, Revision A.03,

 -------------------------------------------------------
 # opt=CalcFc B3LYP/6-31G** SCRF=(Solvent=water) scf=xqc
 -------------------------------------------------------

 ----------------------------------
 VHRGRCVQAFMJIZ-UHFFFAOYSA-N_conf_2
 ----------------------------------
 Symbolic Z-matrix:
 Charge =  0 Multiplicity = 1

 SCF Done:  E(RB3LYP) =  -308.482894632     A.U. after   11 cycles
 SCF Done:  E(RB3LYP) =  -308.485004288     A.U. after    9 cycles
 SCF Done:  E(RB3LYP) =  -308.485052872     A.U. after    8 cycles
 SCF Done:  E(RB3LYP) =  -308.485053615     A.U. after    7 cycles
 Optimization completed.
    -- Stationary point found.
 Normal termination of Gaussian 16 at Tue Jul  9 18:04:22 2024.

 ----------------------------------------------------------------------
 # freq B3LYP/6-31G** SCRF=(Solvent=water) volume NMR pop=NPA density=c
 urrent Geom=AllCheck Guess=Read
 ----------------------------------------------------------------------

 Structure from the checkpoint file:  "VHRGRCVQAFMJIZ-UHFFFAOYSA-N_conf_2_1.chk"
 ----------------------------------
 VHRGRCVQAFMJIZ-UHFFFAOYSA-N_conf_2
 ----------------------------------
 Charge =  0 Multiplicity = 1

 SCF Done:  E(RB3LYP) =  -308.485053615     A.U. after    1 cycles

      1  N    Isotropic =   235.0915   Anisotropy =    26.9981

      2  C    Isotropic =   147.7669   Anisotropy =    23.6247

      3  C    Isotropic =   157.4280   Anisotropy =    22.4874

      4  C    Isotropic =   166.1542   Anisotropy =    16.1246

      5  C    Isotropic =   154.6544   Anisotropy =    26.4449

      6  C    Isotropic =   147.1756   Anisotropy =    26.0205

      7  N    Isotropic =   237.4117   Anisotropy =    41.3099

      8  H    Isotropic =    31.2517   Anisotropy =    11.3197

      9  H    Isotropic =    31.0762   Anisotropy =    15.5820

     10  H    Isotropic =    28.8177   Anisotropy =     7.4312

     11  H    Isotropic =    29.1589   Anisotropy =     7.8136

     12  H    Isotropic =    30.4694   Anisotropy =     6.9364

     13  H    Isotropic =    30.2884   Anisotropy =     6.6358

     14  H    Isotropic =    30.5065   Anisotropy =     5.6952

     15  H    Isotropic =    30.3977   Anisotropy =     5.7769

     16  H    Isotropic =    30.5737   Anisotropy =     6.1426

     17  H    Isotropic =    30.3801   Anisotropy =     6.6303

     18  H    Isotropic =    29.0015   Anisotropy =     8.3640

     19  H    Isotropic =    29.3159   Anisotropy =     7.1564

     20  H    Isotropic =    30.8990   Anisotropy =    11.6853

     21  H    Isotropic =    31.8836   Anisotropy =    13.4570

  Exact polarizability:  93.017  -2.128  83.735  -0.493   0.971  83.188
 Approx polarizability:  92.379  -1.544  90.998  -1.832   1.215  91.688

                      1                      2                      3
                      A                      A                      A
 Frequencies --     44.8787                86.4329               116.3106
 Red. masses --      2.7879                 2.5129                 3.3237
 Frc consts  --      0.0033                 0.0111                 0.0265
 IR Inten    --      1.4429                 3.7053                 0.9310

                      4                      5                      6
                      A                      A                      A
 Frequencies --    149.5802               183.4048               245.5368
 Red. masses --      1.8068                 1.5472                 1.2458
 Frc consts  --      0.0238                 0.0307                 0.0443
 IR Inten    --      4.7746                31.5073                44.0131

                      7                      8                      9
                      A                      A                      A
 Frequencies --    297.1517               321.4179               340.5593
 Red. masses --      1.6933                 1.8103                 1.9893
 Frc consts  --      0.0881                 0.1102                 0.1359
 IR Inten    --     46.5022                38.6130                 6.4416

                     10                     11                     12
                      A                      A                      A
 Frequencies --    484.9535               488.8959               741.6201
 Red. masses --      2.3402                 2.1628                 1.1364
 Frc consts  --      0.3243                 0.3046                 0.3683
 IR Inten    --      9.4650                 9.4648                 3.7849

                     13                     14                     15
                      A                      A                      A
 Frequencies --    793.2427               851.2263               858.1581
 Red. masses --      1.3632                 1.7751                 1.8448
 Frc consts  --      0.5054                 0.7578                 0.8004
 IR Inten    --     12.8913                21.9100               118.9439

                     16                     17                     18
                      A                      A                      A
 Frequencies --    890.5558               916.1688               927.6066
 Red. masses --      1.5604                 1.5474                 1.6007
 Frc consts  --      0.7291                 0.7652                 0.8115
 IR Inten    --     26.1097               134.3282               116.6169

                     19                     20                     21
                      A                      A                      A
 Frequencies --   1000.5863              1028.8750              1048.2131
 Red. masses --      1.7554                 1.6882                 1.8860
 Frc consts  --      1.0354                 1.0529                 1.2209
 IR Inten    --     75.6594                 1.3284                 3.2147

                     22                     23                     24
                      A                      A                      A
 Frequencies --   1082.1793              1109.0232              1134.3569
 Red. masses --      2.5986                 2.2890                 1.3198
 Frc consts  --      1.7930                 1.6587                 1.0006
 IR Inten    --     14.8772                10.1146                 6.5558

                     25                     26                     27
                      A                      A                      A
 Frequencies --   1162.6356              1190.7698              1243.0537
 Red. masses --      1.8439                 1.3493                 1.4821
 Frc consts  --      1.4685                 1.1273                 1.3493
 IR Inten    --     18.8178                 8.8811                 3.0856

                     28                     29                     30
                      A                      A                      A
 Frequencies --   1298.7339              1312.1557              1339.6897
 Red. masses --      1.2931                 1.3039                 1.0846
 Frc consts  --      1.2851                 1.3227                 1.1469
 IR Inten    --      2.2187                 6.4855                 0.9906

                     31                     32                     33
                      A                      A                      A
 Frequencies --   1353.8214              1378.8599              1395.2152
 Red. masses --      1.1398                 1.4175                 1.2905
 Frc consts  --      1.2309                 1.5879                 1.4801
 IR Inten    --      5.8282                 1.7051                21.4510

                     34                     35                     36
                      A                      A                      A
 Frequencies --   1400.0164              1414.1182              1431.6422
 Red. masses --      1.1838                 1.5610                 1.4366
 Frc consts  --      1.3671                 1.8392                 1.7348
 IR Inten    --      0.3797                 8.1498                20.6758

                     37                     38                     39
                      A                      A                      A
 Frequencies --   1479.9358              1485.8616              1496.9506
 Red. masses --      1.0858                 1.0921                 1.0908
 Frc consts  --      1.4011                 1.4205                 1.4402
 IR Inten    --      3.1733                 1.8596                 0.2335

                     40                     41                     42
                      A                      A                      A
 Frequencies --   1511.0090              1515.9278              1658.5731
 Red. masses --      1.0996                 1.0868                 1.0866
 Frc consts  --      1.4791                 1.4715                 1.7611
 IR Inten    --      3.1271                 2.1872                41.7048

                     43                     44                     45
                      A                      A                      A
 Frequencies --   1658.9649              2951.8731              3007.6452
 Red. masses --      1.0881                 1.0728                 1.0597
 Frc consts  --      1.7644                 5.5078                 5.6479
 IR Inten    --     32.9358               121.5675                 9.5420

                     46                     47                     48
                      A                      A                      A
 Frequencies --   3012.0397              3023.4332              3026.2722
 Red. masses --      1.0592                 1.0604                 1.0653
 Frc consts  --      5.6619                 5.7113                 5.7484
 IR Inten    --     56.2039                83.1918                46.9003

                     49                     50                     51
                      A                      A                      A
 Frequencies --   3038.8820              3053.2616              3061.7764
 Red. masses --      1.0958                 1.1017                 1.0890
 Frc consts  --      5.9624                 6.0513                 6.0148
 IR Inten    --     16.5839                39.0857                84.0207

                     52                     53                     54
                      A                      A                      A
 Frequencies --   3068.2436              3071.6288              3475.8439
 Red. masses --      1.1052                 1.1055                 1.0504
 Frc consts  --      6.1303                 6.1454                 7.4768
 IR Inten    --     64.1709               209.4658                 1.4658

                     55                     56                     57
                      A                      A                      A
 Frequencies --   3485.4353              3556.8417              3559.8099
 Red. masses --      1.0509                 1.0913                 1.0912
 Frc consts  --      7.5221                 8.1340                 8.1474
 IR Inten    --      1.0434                 0.1128                 0.0146

 - Thermochemistry -
 -------------------
 Temperature   298.150 Kelvin.  Pressure   1.00000 Atm.
 Atom     1 has atomic number  7 and mass  14.00307

 Molecular mass:   102.11570 amu.
 Principal axes and moments of inertia in atomic units:
                           1         2         3
     Eigenvalues --   304.189401942.505702023.56120
           X            0.99995  -0.00713   0.00668
           Y            0.00713   0.99997   0.00025
           Z           -0.00668  -0.00020   0.99998
 This molecule is an asymmetric top.
 Rotational symmetry number  1.
 Rotational temperatures (Kelvin)      0.28474     0.04459     0.04280
 Rotational constants (GHZ):           5.93295     0.92908     0.89186
 Zero-point vibrational energy     515960.5 (Joules/Mol)
                                  123.31751 (Kcal/Mol)
 Warning -- explicit consideration of  11 degrees of freedom as
           vibrations may cause significant error
 Vibrational temperatures:     64.57   124.36   167.34   215.21   263.88
          (Kelvin)            353.27   427.54   462.45   489.99   697.74
                              703.41  1067.03  1141.30  1224.72  1234.70
                             1281.31  1318.16  1334.62  1439.62  1480.32
                             1508.14  1557.01  1595.64  1632.09  1672.77
                             1713.25  1788.48  1868.59  1887.90  1927.51
                             1947.85  1983.87  2007.40  2014.31  2034.60
                             2059.81  2129.30  2137.82  2153.78  2174.00
                             2181.08  2386.32  2386.88  4247.09  4327.33
                             4333.65  4350.05  4354.13  4372.27  4392.96
                             4405.21  4414.52  4419.39  5000.96  5014.76
                             5117.50  5121.77

 Zero-point correction=                           0.196519 (Hartree/Particle)
 Thermal correction to Energy=                    0.205835
 Thermal correction to Enthalpy=                  0.206779
 Thermal correction to Gibbs Free Energy=         0.161940
 Sum of electronic and zero-point Energies=           -308.288535
 Sum of electronic and thermal Energies=              -308.279219
 Sum of electronic and thermal Enthalpies=            -308.278274
 Sum of electronic and thermal Free Energies=         -308.323114

                     E (Thermal)             CV                S
                      KCal/Mol        Cal/Mol-Kelvin    Cal/Mol-Kelvin
 Total                  129.163             32.856             94.372
 Electronic               0.000              0.000              0.000
 Translational            0.889              2.981             39.780
 Rotational               0.889              2.981             28.571
 Vibrational            127.386             26.894             26.021
 Vibration     1          0.595              1.979              5.031
 Vibration     2          0.601              1.959              3.739
 Vibration     3          0.608              1.936              3.161
 Vibration     4          0.618              1.903              2.678
 Vibration     5          0.631              1.862              2.293
 Vibration     6          0.660              1.770              1.762
 Vibration     7          0.691              1.679              1.433
 Vibration     8          0.707              1.633              1.303
 Vibration     9          0.720              1.594              1.210
 Vibration    10          0.841              1.283              0.697
 Vibration    11          0.845              1.275              0.686

 Optimization completed.
    -- Stationary point found.
 Normal termination of Gaussian 16 at Tue Jul  9 18:14:24 2024.
 Gaussian 16:  EM64L-G16RevA.03 25-Dec-2016

 ----------------------------------------------------------------------
 # TD(NStates=10, Root=1) B3LYP/6-31G** SCRF=(Solvent=water) volume pop
 =NPA density=current Geom=AllCheck Guess=Read
 ----------------------------------------------------------------------

 Structure from the checkpoint file:  "VHRGRCVQAFMJIZ-UHFFFAOYSA-N_conf_2_2.chk"
 ----------------------------------
 VHRGRCVQAFMJIZ-UHFFFAOYSA-N_conf_2
 ----------------------------------
 Charge =  0 Multiplicity = 1

                         Standard orientation:
 ---------------------------------------------------------------------
 Center     Atomic      Atomic             Coordinates (Angstroms)
 Number     Number       Type             X           Y           Z
 ---------------------------------------------------------------------
      1          7           0        2.940362   -0.752506   -0.604109
      2          6           0        2.510799    0.059330    0.547586
      3          6           0        1.246541    0.866156    0.235032
      4          6           0       -0.000029    0.010431   -0.027525
      5          6           0       -1.263808    0.845411   -0.268904
      6          6           0       -2.528200    0.015393   -0.550828
      7          7           0       -3.001435   -0.859475    0.532772
      8          1           0        2.291963   -1.528213   -0.725758
      9          1           0        3.832017   -1.191231   -0.381746
     10          1           0        2.337269   -0.536484    1.461205
     11          1           0        3.325065    0.755248    0.781408
     12          1           0        1.048204    1.537064    1.081773
     13          1           0        1.441728    1.505578   -0.636033
     14          1           0        0.168991   -0.634327   -0.901211
     15          1           0       -0.158093   -0.660310    0.828812
     16          1           0       -1.447952    1.491216    0.602227
     17          1           0       -1.093599    1.519934   -1.119920
     18          1           0       -3.348406    0.696618   -0.808922
     19          1           0       -2.359555   -0.613169   -1.435213
     20          1           0       -2.276005   -1.535900    0.763036
     21          1           0       -3.125938   -0.302486    1.377534
 ---------------------------------------------------------------------

 SCF Done:  E(RB3LYP) =  -308.485053615     A.U. after    1 cycles

 Excitation energies and oscillator strengths:

 Excited State   1:      Singlet-A      7.3921 eV  167.73 nm  f=0.0239  <S**2>=0.000
      28 -> 30         0.18152
      28 -> 31         0.41832
      29 -> 30         0.52849
 This state for optimization and/or second-order correction.
 Total Energy, E(TD-HF/TD-DFT) =  -308.213398774
 Copying the excited state density for this state as the 1-particle RhoCI density.

 Excited State   2:      Singlet-A      7.4130 eV  167.25 nm  f=0.0183  <S**2>=0.000
      28 -> 30         0.48319
      29 -> 30        -0.20622
      29 -> 31         0.46138

 Excited State   3:      Singlet-A      8.1461 eV  152.20 nm  f=0.0002  <S**2>=0.000
      28 -> 30        -0.42099
      28 -> 31        -0.12895
      29 -> 30         0.18812
      29 -> 31         0.51089

 Excited State   4:      Singlet-A      8.1620 eV  151.90 nm  f=0.0057  <S**2>=0.000
      28 -> 30        -0.22889
      28 -> 31         0.53946
      29 -> 30        -0.37247

 Excited State   5:      Singlet-A      8.5503 eV  145.01 nm  f=0.0277  <S**2>=0.000
      28 -> 33        -0.28416
      28 -> 35        -0.16928
      29 -> 32         0.59266
      29 -> 34        -0.12941

 Excited State   6:      Singlet-A      8.5754 eV  144.58 nm  f=0.0372  <S**2>=0.000
      28 -> 32        -0.46082
      29 -> 33         0.47258
      29 -> 35         0.13594

 Excited State   7:      Singlet-A      8.7061 eV  142.41 nm  f=0.0401  <S**2>=0.000
      28 -> 32         0.28871
      28 -> 33        -0.35693
      29 -> 32        -0.11347
      29 -> 33         0.43422
      29 -> 34         0.14858
      29 -> 35        -0.17439
      29 -> 36         0.10706

 Excited State   8:      Singlet-A      8.8718 eV  139.75 nm  f=0.0615  <S**2>=0.000
      28 -> 32         0.33789
      28 -> 33         0.49348
      29 -> 32         0.23158
      29 -> 33         0.23041
      29 -> 36        -0.10416

 Excited State   9:      Singlet-A      9.0718 eV  136.67 nm  f=0.0527  <S**2>=0.000
      28 -> 34         0.31732
      28 -> 35         0.14922
      28 -> 37         0.22271
      29 -> 34         0.50234
      29 -> 35         0.11303
      29 -> 37         0.10461

 Excited State  10:      Singlet-A      9.1412 eV  135.63 nm  f=0.0230  <S**2>=0.000
      28 -> 32         0.19445
      28 -> 34         0.48208
      29 -> 32        -0.19402
      29 -> 34        -0.30468
      29 -> 36        -0.11900
      29 -> 37         0.21562

 The electronic state is 1-A.
 Alpha  occ. eigenvalues --  -14.30943 -14.30820 -10.20113 -10.20097 -10.17595
 Alpha  occ. eigenvalues --  -10.17437 -10.17405  -0.87475  -0.87226  -0.78030
 Alpha  occ. eigenvalues --   -0.71742  -0.65231  -0.58667  -0.56539  -0.48722
 Alpha  occ. eigenvalues --   -0.47990  -0.46908  -0.43835  -0.42235  -0.41153
 Alpha  occ. eigenvalues --   -0.38620  -0.38097  -0.35966  -0.34287  -0.32403
 Alpha  occ. eigenvalues --   -0.32047  -0.31382  -0.23732  -0.23404
 Alpha virt. eigenvalues --    0.08183   0.08922   0.11661   0.11803   0.13510
 Alpha virt. eigenvalues --    0.14855   0.15417   0.15960   0.17679   0.18571
 Alpha virt. eigenvalues --    0.19548   0.20347   0.21063   0.21500   0.22443

 Mulliken charges:
               1
     1  N   -0.215560
     2  C   -0.082782
     3  C   -0.174299
     4  C   -0.110792
     5  C   -0.183288
     6  C   -0.076140
     7  N   -0.471657
     8  H    0.069308
     9  H    0.066872
    10  H    0.109484
    11  H    0.088824
    12  H    0.087570
    13  H    0.102043
    14  H    0.026677
    15  H    0.025735
    16  H    0.082610
    17  H    0.095408
    18  H    0.104696
    19  H    0.102088
    20  H    0.171887
    21  H    0.181318
 Sum of Mulliken charges =  -0.00000

 Dipole moment (field-independent basis, Debye):
    X=              1.2845    Y=              1.2222    Z=              0.7688  Tot=              1.9325
 Quadrupole moment (field-independent basis, Debye-Ang):
   XX=            -52.7240   YY=            -49.0454   ZZ=            -46.8162
   XY=             -2.7952   XZ=              1.5751   YZ=             -0.3569

 Summary of Natural Population Analysis:

                                       Natural Population
                Natural  -----------------------------------------------
    Atom  No    Charge         Core      Valence    Rydberg      Total
 -----------------------------------------------------------------------
      N    1   -0.51985      1.99941     5.50120    0.01923     7.51985
      C    2   -0.32720      1.99931     4.31071    0.01718     6.32720
      C    3   -0.47374      1.99932     4.46249    0.01192     6.47374
      C    4   -0.48559      1.99932     4.46943    0.01684     6.48559
      C    5   -0.47799      1.99930     4.46676    0.01193     6.47799
      C    6   -0.29131      1.99936     4.27427    0.01768     6.29131
      N    7   -0.76258      1.99959     5.74772    0.01527     7.76258
      H    8    0.23823      0.00000     0.69412    0.06765     0.76177
      H    9    0.23601      0.00000     0.69607    0.06793     0.76399
      H   10    0.24098      0.00000     0.73620    0.02282     0.75902
      H   11    0.21922      0.00000     0.76323    0.01755     0.78078
      H   12    0.22834      0.00000     0.76450    0.00716     0.77166
      H   13    0.23886      0.00000     0.75597    0.00517     0.76114
      H   14    0.18544      0.00000     0.79072    0.02383     0.81456
      H   15    0.18454      0.00000     0.79116    0.02430     0.81546
      H   16    0.22198      0.00000     0.76942    0.00860     0.77802
      H   17    0.23771      0.00000     0.75844    0.00386     0.76229
      H   18    0.23394      0.00000     0.76045    0.00560     0.76606
      H   19    0.22547      0.00000     0.76736    0.00717     0.77453
      H   20    0.31837      0.00000     0.64744    0.03418     0.68163
      H   21    0.32917      0.00000     0.63882    0.03201     0.67083
 =======================================================================
   * Total *   -0.00000     13.99561    43.56649    0.43791    58.00000

 1\1\GINC-CN36\SP\RB3LYP TD-FC\6-31G(d,p)\C5H14N2\QDUEZ\09-Jul-2024\0\\
 # TD(NStates=10, Root=1) B3LYP/6-31G** SCRF=(Solvent=water) volume pop
 =NPA density=current Geom=AllCheck Guess=Read\\VHRGRCVQAFMJIZ-UHFFFAOY
 SA-N_conf_2\\0,1\N,0,2.9498502686,-0.7972821232,0.232834018\C,0,2.3600
 272297,0.5052965352,0.5869575871\C,0,1.1988923618,0.875339441,-0.34139
 65812\C,0,-0.0153384124,-0.0573100447,-0.2367624008\C,0,-1.1871363564,
 0.3775365416,-1.1258014993\C,0,-2.4146402214,-0.5472665142,-1.05457154
 28\N,0,-3.0986542459,-0.6412059122,0.2442103866\H,0,2.30339907,-1.5387

 Normal termination of Gaussian 16 at Tue Jul  9 18:28:35 2024.
