 Gaussian 16, Revision A.03,

 -------------------------------------------------------
 # opt=CalcFc B3LYP/6-31G** SCRF=(Solvent=water) scf=xqc
 -------------------------------------------------------

 ----------------------------------
 VHRGRCVQAFMJIZ-UHFFFAOYSA-N_conf_0
 ----------------------------------
 Symbolic Z-matrix:
 Charge =  0 Multiplicity = 1

 SCF Done:  E(RB3LYP) =  -308.481745784     A.U. after   11 cycles
 SCF Done:  E(RB3LYP) =  -308.484031799     A.U. after    9 cycles
 SCF Done:  E(RB3LYP) =  -308.484170328     A.U. after    9 cycles
 SCF Done:  E(RB3LYP) =  -308.484174792     A.U. after    8 cycles
 SCF Done:  E(RB3LYP) =  -308.484174994     A.U. after    7 cycles
 Optimization completed.
    -- Stationary point found.
 Normal termination of Gaussian 16 at Tue Jul  9 18:04:16 2024.

 ----------------------------------------------------------------------
 # freq B3LYP/6-31G** SCRF=(Solvent=water) volume NMR pop=NPA density=c
 urrent Geom=AllCheck Guess=Read
 ----------------------------------------------------------------------

 Structure from the checkpoint file:  "VHRGRCVQAFMJIZ-UHFFFAOYSA-N_conf_0_1.chk"
 ----------------------------------
 VHRGRCVQAFMJIZ-UHFFFAOYSA-N_conf_0
 ----------------------------------
 Charge =  0 Multiplicity = 1

 SCF Done:  E(RB3LYP) =  -308.484174994     A.U. after    1 cycles

      1  N    Isotropic =   235.0342   Anisotropy =    26.9697

      2  C    Isotropic =   147.6528   Anisotropy =    23.4893

      3  C    Isotropic =   157.4983   Anisotropy =    22.2940

      4  C    Isotropic =   165.0112   Anisotropy =    19.3428

      5  C    Isotropic =   157.1684   Anisotropy =    24.8629

      6  C    Isotropic =   147.2824   Anisotropy =    24.0032

      7  N    Isotropic =   233.8060   Anisotropy =    31.6846

      8  H    Isotropic =    31.0875   Anisotropy =    15.5934

      9  H    Isotropic =    31.2022   Anisotropy =    11.3100

     10  H    Isotropic =    28.8339   Anisotropy =     7.5820

     11  H    Isotropic =    29.1556   Anisotropy =     7.8537

     12  H    Isotropic =    30.3779   Anisotropy =     6.6368

     13  H    Isotropic =    30.4026   Anisotropy =     6.7542

     14  H    Isotropic =    29.4342   Anisotropy =     5.9376

     15  H    Isotropic =    30.9263   Anisotropy =     6.4227

     16  H    Isotropic =    30.4586   Anisotropy =     6.1115

     17  H    Isotropic =    30.3842   Anisotropy =     6.8705

     18  H    Isotropic =    28.6038   Anisotropy =     8.7095

     19  H    Isotropic =    29.2908   Anisotropy =     6.5712

     20  H    Isotropic =    31.7614   Anisotropy =    12.4876

     21  H    Isotropic =    31.1179   Anisotropy =    15.3662

  Exact polarizability:  93.602  -1.138  86.192  -0.714  -0.772  80.368
 Approx polarizability:  91.548  -1.304  92.747  -1.311  -1.397  89.267

                      1                      2                      3
                      A                      A                      A
 Frequencies --     53.6418                70.4961               120.6985
 Red. masses --      2.5095                 3.4105                 2.2866
 Frc consts  --      0.0043                 0.0100                 0.0196
 IR Inten    --      3.8596                 1.7709                 0.4391

                      4                      5                      6
                      A                      A                      A
 Frequencies --    154.6795               171.8492               246.1110
 Red. masses --      2.2372                 1.5114                 1.1951
 Frc consts  --      0.0315                 0.0263                 0.0427
 IR Inten    --      7.7666                44.9874                25.2702

                      7                      8                      9
                      A                      A                      A
 Frequencies --    267.3564               310.0458               341.7690
 Red. masses --      1.2364                 3.1764                 2.0238
 Frc consts  --      0.0521                 0.1799                 0.1393
 IR Inten    --     85.3026                 1.3211                13.5505

                     10                     11                     12
                      A                      A                      A
 Frequencies --    486.8198               494.5797               741.2051
 Red. masses --      2.3093                 2.3576                 1.1441
 Frc consts  --      0.3225                 0.3398                 0.3703
 IR Inten    --      7.3237                14.7915                 2.1308

                     13                     14                     15
                      A                      A                      A
 Frequencies --    809.0794               843.0368               866.1046
 Red. masses --      1.4821                 1.4237                 1.5598
 Frc consts  --      0.5716                 0.5961                 0.6894
 IR Inten    --     13.7092                11.8290               157.1490

                     16                     17                     18
                      A                      A                      A
 Frequencies --    902.1675               916.7271               942.2706
 Red. masses --      1.8351                 1.7151                 1.7990
 Frc consts  --      0.8800                 0.8492                 0.9411
 IR Inten    --    130.7960                39.2771                10.1410

                     19                     20                     21
                      A                      A                      A
 Frequencies --    990.2436              1036.3028              1064.4276
 Red. masses --      1.5131                 1.9690                 1.4008
 Frc consts  --      0.8742                 1.2459                 0.9351
 IR Inten    --     37.8495                 0.9351                 3.4114

                     22                     23                     24
                      A                      A                      A
 Frequencies --   1075.4889              1105.9882              1114.2191
 Red. masses --      2.1726                 2.3048                 1.7192
 Frc consts  --      1.4806                 1.6610                 1.2575
 IR Inten    --     11.7419                13.1823                 8.0122

                     25                     26                     27
                      A                      A                      A
 Frequencies --   1177.0438              1187.4888              1253.6774
 Red. masses --      1.4778                 1.5242                 1.3627
 Frc consts  --      1.2063                 1.2664                 1.2619
 IR Inten    --     17.1912                 4.8387                 6.7554

                     28                     29                     30
                      A                      A                      A
 Frequencies --   1286.8772              1319.6018              1324.1090
 Red. masses --      1.3652                 1.2105                 1.1501
 Frc consts  --      1.3321                 1.2420                 1.1880
 IR Inten    --      0.2618                 2.3864                 2.1021

                     31                     32                     33
                      A                      A                      A
 Frequencies --   1340.9420              1353.8889              1387.9430
 Red. masses --      1.1511                 1.1487                 1.3988
 Frc consts  --      1.2195                 1.2405                 1.5877
 IR Inten    --      4.7557                 6.7429                 1.0867

                     34                     35                     36
                      A                      A                      A
 Frequencies --   1412.0148              1427.8093              1433.2874
 Red. masses --      1.6186                 1.4218                 1.4395
 Frc consts  --      1.9014                 1.7078                 1.7423
 IR Inten    --      5.2648                19.7390                25.1463

                     37                     38                     39
                      A                      A                      A
 Frequencies --   1481.4892              1488.3277              1512.6141
 Red. masses --      1.0865                 1.0899                 1.0981
 Frc consts  --      1.4050                 1.4224                 1.4803
 IR Inten    --      2.6762                 2.3844                 4.1323

                     40                     41                     42
                      A                      A                      A
 Frequencies --   1516.7452              1519.1633              1654.0664
 Red. masses --      1.0870                 1.0882                 1.0877
 Frc consts  --      1.4734                 1.4797                 1.7533
 IR Inten    --      2.5063                 2.5178                35.4974

                     43                     44                     45
                      A                      A                      A
 Frequencies --   1658.8034              2950.6884              2960.7595
 Red. masses --      1.0866                 1.0729                 1.0720
 Frc consts  --      1.7616                 5.5035                 5.5368
 IR Inten    --     45.3050               121.5778               133.2872

                     46                     47                     48
                      A                      A                      A
 Frequencies --   3008.4991              3012.9875              3020.5093
 Red. masses --      1.0664                 1.0638                 1.0620
 Frc consts  --      5.6871                 5.6897                 5.7088
 IR Inten    --      4.0947                40.4332               101.0394

                     49                     50                     51
                      A                      A                      A
 Frequencies --   3043.3898              3053.7266              3057.1233
 Red. masses --      1.0912                 1.0934                 1.0996
 Frc consts  --      5.9547                 6.0075                 6.0550
 IR Inten    --     36.7673               117.9858                10.5503

                     52                     53                     54
                      A                      A                      A
 Frequencies --   3060.5772              3083.1227              3475.4286
 Red. masses --      1.0909                 1.0995                 1.0510
 Frc consts  --      6.0207                 6.1576                 7.4795
 IR Inten    --     81.9202               138.9324                 1.4605

                     55                     56                     57
                      A                      A                      A
 Frequencies --   3485.5722              3554.6838              3560.2274
 Red. masses --      1.0509                 1.0913                 1.0912
 Frc consts  --      7.5225                 8.1243                 8.1492
 IR Inten    --      1.1697                 0.0735                 0.0266

 - Thermochemistry -
 -------------------
 Temperature   298.150 Kelvin.  Pressure   1.00000 Atm.
 Atom     1 has atomic number  7 and mass  14.00307

 Molecular mass:   102.11570 amu.
 Principal axes and moments of inertia in atomic units:
                           1         2         3
     Eigenvalues --   334.180291802.678342022.32046
           X            0.99999  -0.00009   0.00536
           Y            0.00001   0.99988   0.01575
           Z           -0.00536  -0.01575   0.99986
 This molecule is an asymmetric top.
 Rotational symmetry number  1.
 Rotational temperatures (Kelvin)      0.25918     0.04805     0.04283
 Rotational constants (GHZ):           5.40050     1.00114     0.89241
 Zero-point vibrational energy     515521.7 (Joules/Mol)
                                  123.21264 (Kcal/Mol)
 Warning -- explicit consideration of  11 degrees of freedom as
           vibrations may cause significant error
 Vibrational temperatures:     77.18   101.43   173.66   222.55   247.25
          (Kelvin)            354.10   384.67   446.09   491.73   700.43
                              711.59  1066.43  1164.08  1212.94  1246.13
                             1298.02  1318.97  1355.72  1424.74  1491.01
                             1531.47  1547.39  1591.27  1603.11  1693.50
                             1708.53  1803.76  1851.53  1898.61  1905.10
                             1929.32  1947.94  1996.94  2031.57  2054.30
                             2062.18  2131.53  2141.37  2176.31  2182.26
                             2185.74  2379.83  2386.65  4245.38  4259.87
                             4328.56  4335.02  4345.84  4378.76  4393.63
                             4398.52  4403.49  4435.93  5000.37  5014.96
                             5114.40  5122.37

 Zero-point correction=                           0.196352 (Hartree/Particle)
 Thermal correction to Energy=                    0.205720
 Thermal correction to Enthalpy=                  0.206664
 Thermal correction to Gibbs Free Energy=         0.161711
 Sum of electronic and zero-point Energies=           -308.287823
 Sum of electronic and thermal Energies=              -308.278455
 Sum of electronic and thermal Enthalpies=            -308.277511
 Sum of electronic and thermal Free Energies=         -308.322464

                     E (Thermal)             CV                S
                      KCal/Mol        Cal/Mol-Kelvin    Cal/Mol-Kelvin
 Total                  129.091             32.874             94.612
 Electronic               0.000              0.000              0.000
 Translational            0.889              2.981             39.780
 Rotational               0.889              2.981             28.590
 Vibrational            127.314             26.912             26.242
 Vibration     1          0.596              1.976              4.678
 Vibration     2          0.598              1.968              4.139
 Vibration     3          0.609              1.932              3.089
 Vibration     4          0.620              1.897              2.614
 Vibration     5          0.626              1.877              2.415
 Vibration     6          0.661              1.769              1.758
 Vibration     7          0.672              1.733              1.613
 Vibration     8          0.699              1.655              1.362
 Vibration     9          0.721              1.592              1.204
 Vibration    10          0.843              1.279              0.692
 Vibration    11          0.850              1.262              0.672

 Optimization completed.
    -- Stationary point found.
 Normal termination of Gaussian 16 at Tue Jul  9 18:13:37 2024.
 Gaussian 16:  EM64L-G16RevA.03 25-Dec-2016

 ----------------------------------------------------------------------
 # TD(NStates=10, Root=1) B3LYP/6-31G** SCRF=(Solvent=water) volume pop
 =NPA density=current Geom=AllCheck Guess=Read
 ----------------------------------------------------------------------

 Structure from the checkpoint file:  "VHRGRCVQAFMJIZ-UHFFFAOYSA-N_conf_0_2.chk"
 ----------------------------------
 VHRGRCVQAFMJIZ-UHFFFAOYSA-N_conf_0
 ----------------------------------
 Charge =  0 Multiplicity = 1

                         Standard orientation:
 ---------------------------------------------------------------------
 Center     Atomic      Atomic             Coordinates (Angstroms)
 Number     Number       Type             X           Y           Z
 ---------------------------------------------------------------------
      1          7           0        2.749518    1.144992   -0.181558
      2          6           0        2.585782   -0.261336    0.225222
      3          6           0        1.279806   -0.858468   -0.308640
      4          6           0        0.011752   -0.214396    0.266666
      5          6           0       -1.278007   -0.880695   -0.227190
      6          6           0       -2.563609   -0.240126    0.306448
      7          7           0       -2.699840    1.154372   -0.146253
      8          1           0        3.664797    1.470668    0.123750
      9          1           0        2.083703    1.719407    0.331857
     10          1           0        2.623102   -0.406187    1.319578
     11          1           0        3.429609   -0.824476   -0.190799
     12          1           0        1.272940   -0.768274   -1.403262
     13          1           0        1.274676   -1.933159   -0.080470
     14          1           0       -0.024254    0.849525    0.007151
     15          1           0        0.044617   -0.266314    1.365154
     16          1           0       -1.301698   -0.863207   -1.327014
     17          1           0       -1.276446   -1.941337    0.057975
     18          1           0       -3.419206   -0.875034    0.020305
     19          1           0       -2.535881   -0.232916    1.403878
     20          1           0       -2.845822    1.156561   -1.155119
     21          1           0       -3.552230    1.549314    0.246660
 ---------------------------------------------------------------------

 SCF Done:  E(RB3LYP) =  -308.484174994     A.U. after    1 cycles

 Excitation energies and oscillator strengths:

 Excited State   1:      Singlet-A      7.3851 eV  167.88 nm  f=0.0141  <S**2>=0.000
      28 -> 31        -0.28537
      29 -> 30         0.52727
      29 -> 31         0.34622
 This state for optimization and/or second-order correction.
 Total Energy, E(TD-HF/TD-DFT) =  -308.212777137
 Copying the excited state density for this state as the 1-particle RhoCI density.

 Excited State   2:      Singlet-A      7.4113 eV  167.29 nm  f=0.0180  <S**2>=0.000
      28 -> 30         0.52707
      28 -> 31        -0.30201
      29 -> 30         0.13295
      29 -> 31        -0.32130

 Excited State   3:      Singlet-A      8.1010 eV  153.05 nm  f=0.0013  <S**2>=0.000
      28 -> 30         0.24426
      28 -> 31        -0.24067
      29 -> 30        -0.40263
      29 -> 31         0.45929

 Excited State   4:      Singlet-A      8.2490 eV  150.30 nm  f=0.0028  <S**2>=0.000
      28 -> 30         0.38963
      28 -> 31         0.49797
      29 -> 30         0.19140
      29 -> 31         0.22654

 Excited State   5:      Singlet-A      8.5967 eV  144.22 nm  f=0.0226  <S**2>=0.000
      28 -> 32         0.30123
      28 -> 33        -0.16508
      28 -> 34        -0.24622
      29 -> 32         0.52072
      29 -> 33         0.13525

 Excited State   6:      Singlet-A      8.6293 eV  143.68 nm  f=0.0174  <S**2>=0.000
      28 -> 32         0.47152
      28 -> 34        -0.12134
      29 -> 32        -0.20975
      29 -> 33        -0.38821
      29 -> 34        -0.16659
      29 -> 36        -0.10780

 Excited State   7:      Singlet-A      8.7729 eV  141.33 nm  f=0.0324  <S**2>=0.000
      28 -> 32         0.21894
      28 -> 33        -0.19148
      29 -> 32        -0.30791
      29 -> 33         0.45275
      29 -> 34        -0.20390
      29 -> 35        -0.15289
      29 -> 36         0.15775

 Excited State   8:      Singlet-A      9.0092 eV  137.62 nm  f=0.0598  <S**2>=0.000
      28 -> 32         0.25741
      28 -> 33         0.38360
      28 -> 34         0.28974
      28 -> 35        -0.25345
      28 -> 36        -0.11970
      28 -> 38        -0.10073
      29 -> 33         0.16936
      29 -> 34         0.18961
      29 -> 35        -0.14729

 Excited State   9:      Singlet-A      9.0496 eV  137.00 nm  f=0.0243  <S**2>=0.000
      28 -> 33         0.48337
      28 -> 34        -0.29321
      28 -> 35         0.21499
      29 -> 33         0.19893
      29 -> 34        -0.18222
      29 -> 35         0.15342

 Excited State  10:      Singlet-A      9.1899 eV  134.91 nm  f=0.0203  <S**2>=0.000
      28 -> 32         0.13141
      28 -> 34        -0.29340
      29 -> 32        -0.21702
      29 -> 33         0.10730
      29 -> 34         0.52792
      29 -> 35         0.15317
      29 -> 38         0.10684

 The electronic state is 1-A.
 Alpha  occ. eigenvalues --  -14.30794 -14.30754 -10.20063 -10.20017 -10.17442
 Alpha  occ. eigenvalues --  -10.17266 -10.17125  -0.87359  -0.87138  -0.77898
 Alpha  occ. eigenvalues --   -0.71790  -0.64894  -0.58184  -0.56355  -0.48703
 Alpha  occ. eigenvalues --   -0.47623  -0.46519  -0.44437  -0.42902  -0.40641
 Alpha  occ. eigenvalues --   -0.38483  -0.37759  -0.35396  -0.34165  -0.32303
 Alpha  occ. eigenvalues --   -0.31868  -0.31048  -0.23607  -0.23308
 Alpha virt. eigenvalues --    0.08379   0.09032   0.11805   0.12595   0.13492
 Alpha virt. eigenvalues --    0.14443   0.15905   0.16740   0.17212   0.18708
 Alpha virt. eigenvalues --    0.19458   0.20191   0.20642   0.21544   0.22680

 Mulliken charges:
               1
     1  N   -0.595433
     2  C   -0.062568
     3  C   -0.169646
     4  C   -0.150873
     5  C   -0.152997
     6  C   -0.077476
     7  N   -0.089654
     8  H    0.230237
     9  H    0.231196
    10  H    0.084160
    11  H    0.098064
    12  H    0.090793
    13  H    0.089546
    14  H    0.065692
    15  H    0.080301
    16  H    0.059830
    17  H    0.063954
    18  H    0.101690
    19  H    0.086922
    20  H    0.014427
    21  H    0.001836
 Sum of Mulliken charges =  -0.00000

 Dipole moment (field-independent basis, Debye):
    X=              0.1204    Y=             -0.5010    Z=              1.9806  Tot=              2.0466
 Quadrupole moment (field-independent basis, Debye-Ang):
   XX=            -46.3438   YY=            -47.6851   ZZ=            -50.4153
   XY=              2.0033   XZ=              2.7978   YZ=              1.9121

 Summary of Natural Population Analysis:

                                       Natural Population
                Natural  -----------------------------------------------
    Atom  No    Charge         Core      Valence    Rydberg      Total
 -----------------------------------------------------------------------
      N    1   -0.88708      1.99965     5.87276    0.01467     7.88708
      C    2   -0.26688      1.99935     4.25302    0.01451     6.26688
      C    3   -0.47629      1.99933     4.46458    0.01238     6.47629
      C    4   -0.47060      1.99932     4.45816    0.01312     6.47060
      C    5   -0.47577      1.99932     4.46312    0.01332     6.47577
      C    6   -0.34640      1.99931     4.32876    0.01832     6.34640
      N    7   -0.41709      1.99936     5.39558    0.02214     7.41709
      H    8    0.37119      0.00000     0.61717    0.01163     0.62881
      H    9    0.36607      0.00000     0.62245    0.01148     0.63393
      H   10    0.20570      0.00000     0.78926    0.00503     0.79430
      H   11    0.22901      0.00000     0.76726    0.00373     0.77099
      H   12    0.23060      0.00000     0.76525    0.00416     0.76940
      H   13    0.23416      0.00000     0.76170    0.00414     0.76584
      H   14    0.20928      0.00000     0.77818    0.01253     0.79072
      H   15    0.22437      0.00000     0.76836    0.00727     0.77563
      H   16    0.21015      0.00000     0.76963    0.02021     0.78985
      H   17    0.20927      0.00000     0.77772    0.01301     0.79073
      H   18    0.24503      0.00000     0.72283    0.03214     0.75497
      H   19    0.21684      0.00000     0.75960    0.02357     0.78316
      H   20    0.20195      0.00000     0.71425    0.08380     0.79805
      H   21    0.18648      0.00000     0.73061    0.08291     0.81352
 =======================================================================
   * Total *    0.00000     13.99564    43.58028    0.42408    58.00000

 1\1\GINC-CN36\SP\RB3LYP TD-FC\6-31G(d,p)\C5H14N2\QDUEZ\09-Jul-2024\0\\
 # TD(NStates=10, Root=1) B3LYP/6-31G** SCRF=(Solvent=water) volume pop
 =NPA density=current Geom=AllCheck Guess=Read\\VHRGRCVQAFMJIZ-UHFFFAOY
 SA-N_conf_0\\0,1\N,0,-2.4768812716,1.5892411106,0.742923865\C,0,-2.558
 6828164,0.129804519,0.5601885912\C,0,-1.2097948854,-0.550727957,0.8142
 047652\C,0,-0.1132913491,-0.168620621,-0.1885102529\C,0,1.2026357823,-
 0.920619931,0.0442092523\C,0,2.3276624623,-0.5382557484,-0.9232525023\
 N,0,2.7076987781,0.8767436647,-0.7767209403\H,0,-3.4101578097,1.985062

 Normal termination of Gaussian 16 at Tue Jul  9 18:25:57 2024.
