 Gaussian 16, Revision A.03,

 -------------------------------------------------------
 # opt=CalcFc B3LYP/6-31G** SCRF=(Solvent=water) scf=xqc
 -------------------------------------------------------

 ----------------------------------
 IMNIMPAHZVJRPE-UHFFFAOYSA-N_conf_0
 ----------------------------------
 Symbolic Z-matrix:
 Charge =  0 Multiplicity = 1

 SCF Done:  E(RB3LYP) =  -345.346491116     A.U. after   10 cycles
 SCF Done:  E(RB3LYP) =  -345.350104048     A.U. after    9 cycles
 SCF Done:  E(RB3LYP) =  -345.350182026     A.U. after    8 cycles
 SCF Done:  E(RB3LYP) =  -345.350198692     A.U. after    7 cycles
 SCF Done:  E(RB3LYP) =  -345.350199590     A.U. after    6 cycles
 SCF Done:  E(RB3LYP) =  -345.350199614     A.U. after    7 cycles
 Optimization completed.
    -- Stationary point found.
 Normal termination of Gaussian 16 at Thu Jul 18 02:00:54 2024.

 ----------------------------------------------------------------------
 # freq B3LYP/6-31G** SCRF=(Solvent=water) volume NMR pop=NPA density=c
 urrent Geom=AllCheck Guess=Read
 ----------------------------------------------------------------------

 Structure from the checkpoint file:  "IMNIMPAHZVJRPE-UHFFFAOYSA-N_conf_0_1.chk"
 ----------------------------------
 IMNIMPAHZVJRPE-UHFFFAOYSA-N_conf_0
 ----------------------------------
 Charge =  0 Multiplicity = 1

 SCF Done:  E(RB3LYP) =  -345.350199614     A.U. after    1 cycles

      1  N    Isotropic =   240.4789   Anisotropy =    28.3008

      2  C    Isotropic =   143.4446   Anisotropy =    32.2110

      3  C    Isotropic =   143.4445   Anisotropy =    32.2111

      4  N    Isotropic =   240.4788   Anisotropy =    28.3009

      5  C    Isotropic =   143.4423   Anisotropy =    32.2441

      6  C    Isotropic =   143.4422   Anisotropy =    32.2441

      7  C    Isotropic =   143.4449   Anisotropy =    32.2136

      8  C    Isotropic =   143.4448   Anisotropy =    32.2136

      9  H    Isotropic =    29.3093   Anisotropy =     9.3069

     10  H    Isotropic =    29.3081   Anisotropy =     9.3107

     11  H    Isotropic =    29.3093   Anisotropy =     9.3069

     12  H    Isotropic =    29.3081   Anisotropy =     9.3107

     13  H    Isotropic =    29.3101   Anisotropy =     9.3051

     14  H    Isotropic =    29.3094   Anisotropy =     9.3080

     15  H    Isotropic =    29.3094   Anisotropy =     9.3079

     16  H    Isotropic =    29.3101   Anisotropy =     9.3051

     17  H    Isotropic =    29.3080   Anisotropy =     9.3099

     18  H    Isotropic =    29.3084   Anisotropy =     9.3078

     19  H    Isotropic =    29.3080   Anisotropy =     9.3099

     20  H    Isotropic =    29.3085   Anisotropy =     9.3078

  Exact polarizability:  81.409   0.001  97.767   0.000  -0.012  97.782
 Approx polarizability:  91.402   0.001 105.548   0.000  -0.000 105.549

                      1                      2                      3
                      A                      A                      A
 Frequencies --     90.1035               334.3780               335.4091
 Red. masses --      1.6989                 1.6948                 1.6968
 Frc consts  --      0.0081                 0.1116                 0.1125
 IR Inten    --      0.0001                 0.0000                 0.0000

                      4                      5                      6
                      A                      A                      A
 Frequencies --    425.4357               426.0819               587.9857
 Red. masses --      2.3052                 2.3095                 3.6600
 Frc consts  --      0.2458                 0.2470                 0.7455
 IR Inten    --      0.1136                 0.1071                 0.0002

                      7                      8                      9
                      A                      A                      A
 Frequencies --    588.1338               608.7613               761.4883
 Red. masses --      3.6561                11.7204                 4.0802
 Frc consts  --      0.7451                 2.5591                 1.3940
 IR Inten    --      0.0000                 0.0000                98.5935

                     10                     11                     12
                      A                      A                      A
 Frequencies --    808.0225               814.6825               835.1401
 Red. masses --      5.1636                 1.1596                 1.2738
 Frc consts  --      1.9863                 0.4534                 0.5234
 IR Inten    --      0.0002                 0.0104                11.3622

                     13                     14                     15
                      A                      A                      A
 Frequencies --    836.0914               898.2406               898.8361
 Red. masses --      1.2739                 3.5171                 3.5022
 Frc consts  --      0.5247                 1.6719                 1.6670
 IR Inten    --     11.4130                 5.2380                 5.1686

                     16                     17                     18
                      A                      A                      A
 Frequencies --    965.9227               993.2420              1029.4169
 Red. masses --      3.0411                 5.3362                 1.5234
 Frc consts  --      1.6717                 3.1017                 0.9512
 IR Inten    --      0.0020                33.4584                 0.0000

                     19                     20                     21
                      A                      A                      A
 Frequencies --   1035.7724              1036.0005              1074.1451
 Red. masses --      2.9935                 2.9899                 3.1432
 Frc consts  --      1.8922                 1.8907                 2.1367
 IR Inten    --      0.0002                 0.0000                61.1469

                     22                     23                     24
                      A                      A                      A
 Frequencies --   1074.4573              1200.8831              1207.9713
 Red. masses --      3.1370                 1.0412                 2.1044
 Frc consts  --      2.1337                 0.8847                 1.8092
 IR Inten    --     61.0488                 0.0002                 0.0000

                     25                     26                     27
                      A                      A                      A
 Frequencies --   1208.0892              1272.1448              1332.6864
 Red. masses --      2.0998                 1.0955                 1.2069
 Frc consts  --      1.8056                 1.0446                 1.2629
 IR Inten    --      0.0000                 0.0001                 0.0001

                     28                     29                     30
                      A                      A                      A
 Frequencies --   1332.8635              1337.6538              1337.7970
 Red. masses --      1.2071                 1.2246                 1.2229
 Frc consts  --      1.2635                 1.2910                 1.2895
 IR Inten    --      0.0001                 0.0344                 0.0581

                     31                     32                     33
                      A                      A                      A
 Frequencies --   1352.4333              1352.7108              1353.5519
 Red. masses --      1.3781                 1.3774                 1.4566
 Frc consts  --      1.4851                 1.4850                 1.5724
 IR Inten    --      0.0000                 0.0000                15.5850

                     34                     35                     36
                      A                      A                      A
 Frequencies --   1353.6828              1369.3276              1394.6327
 Red. masses --      1.4556                 1.3306                 1.3381
 Frc consts  --      1.5715                 1.4700                 1.5334
 IR Inten    --     15.6423                 0.0028                16.3887

                     37                     38                     39
                      A                      A                      A
 Frequencies --   1490.7940              1491.5111              1498.5923
 Red. masses --      1.0811                 1.0809                 1.0823
 Frc consts  --      1.4156                 1.4168                 1.4321
 IR Inten    --      0.0024                 0.0000                 6.0347

                     40                     41                     42
                      A                      A                      A
 Frequencies --   1499.0898              1502.8849              1507.2288
 Red. masses --      1.0822                 1.0947                 1.0944
 Frc consts  --      1.4330                 1.4568                 1.4648
 IR Inten    --      6.1929                 2.8335                 0.0238

                     43                     44                     45
                      A                      A                      A
 Frequencies --   3035.0182              3035.2922              3037.1187
 Red. masses --      1.0581                 1.0581                 1.0604
 Frc consts  --      5.7425                 5.7435                 5.7628
 IR Inten    --      0.6078                 0.2051               184.6222

                     46                     47                     48
                      A                      A                      A
 Frequencies --   3041.8989              3042.1503              3051.9124
 Red. masses --      1.0584                 1.0584                 1.0617
 Frc consts  --      5.7703                 5.7713                 5.8264
 IR Inten    --    182.0451               181.3262                 0.0183

                     49                     50                     51
                      A                      A                      A
 Frequencies --   3076.6378              3078.1900              3078.3944
 Red. masses --      1.1085                 1.1073                 1.1074
 Frc consts  --      6.1823                 6.1819                 6.1828
 IR Inten    --      0.0010                 0.0001                 0.0002

                     52                     53                     54
                      A                      A                      A
 Frequencies --   3095.6281              3099.0372              3099.2415
 Red. masses --      1.1087                 1.1087                 1.1087
 Frc consts  --      6.2598                 6.2738                 6.2747
 IR Inten    --      0.5340               162.3150               162.0305

 - Thermochemistry -
 -------------------
 Temperature   298.150 Kelvin.  Pressure   1.00000 Atm.
 Atom     1 has atomic number  7 and mass  14.00307

 Molecular mass:   112.10005 amu.
 Principal axes and moments of inertia in atomic units:
                           1         2         3
     Eigenvalues --   682.62647 725.54144 725.55698
           X            1.00000   0.00003   0.00001
           Y           -0.00003   0.99983  -0.01837
           Z           -0.00001   0.01837   0.99983
 This molecule is an asymmetric top.
 Rotational symmetry number  1.
 Warning -- assumption of classical behavior for rotation
           may cause significant error
 Rotational temperatures (Kelvin)      0.12688     0.11938     0.11938
 Rotational constants (GHZ):           2.64382     2.48744     2.48739
 Zero-point vibrational energy     482243.4 (Joules/Mol)
                                  115.25893 (Kcal/Mol)
 Warning -- explicit consideration of   8 degrees of freedom as
           vibrations may cause significant error
 Vibrational temperatures:    129.64   481.10   482.58   612.11   613.04
          (Kelvin)            845.98   846.19   875.87  1095.61  1162.56
                             1172.15  1201.58  1202.95  1292.37  1293.22
                             1389.75  1429.05  1481.10  1490.25  1490.57
                             1545.46  1545.90  1727.80  1738.00  1738.17
                             1830.33  1917.44  1917.69  1924.59  1924.79
                             1945.85  1946.25  1947.46  1947.65  1970.16
                             2006.57  2144.92  2145.95  2156.14  2156.86
                             2162.32  2168.57  4366.71  4367.11  4369.74
                             4376.61  4376.98  4391.02  4426.60  4428.83
                             4429.12  4453.92  4458.82  4459.12

 Zero-point correction=                           0.183677 (Hartree/Particle)
 Thermal correction to Energy=                    0.189979
 Thermal correction to Enthalpy=                  0.190924
 Thermal correction to Gibbs Free Energy=         0.153390
 Sum of electronic and zero-point Energies=           -345.166523
 Sum of electronic and thermal Energies=              -345.160220
 Sum of electronic and thermal Enthalpies=            -345.159276
 Sum of electronic and thermal Free Energies=         -345.196810

                     E (Thermal)             CV                S
                      KCal/Mol        Cal/Mol-Kelvin    Cal/Mol-Kelvin
 Total                  119.214             26.157             78.996
 Electronic               0.000              0.000              0.000
 Translational            0.889              2.981             40.058
 Rotational               0.889              2.981             27.377
 Vibrational            117.436             20.196             11.561
 Vibration     1          0.602              1.956              3.658
 Vibration     2          0.716              1.607              1.239
 Vibration     3          0.717              1.605              1.234
 Vibration     4          0.787              1.415              0.874
 Vibration     5          0.788              1.413              0.872
 Vibration     6          0.945              1.057              0.471
 Vibration     7          0.945              1.057              0.471
 Vibration     8          0.968              1.013              0.435

 Optimization completed.
    -- Stationary point found.
 Normal termination of Gaussian 16 at Thu Jul 18 02:04:22 2024.
 Gaussian 16:  ES64L-G16RevA.03 25-Dec-2016

 ----------------------------------------------------------------------
 # TD(NStates=10, Root=1) B3LYP/6-31G** SCRF=(Solvent=water) volume pop
 =NPA density=current Geom=AllCheck Guess=Read
 ----------------------------------------------------------------------

 Structure from the checkpoint file:  "IMNIMPAHZVJRPE-UHFFFAOYSA-N_conf_0_2.chk"
 ----------------------------------
 IMNIMPAHZVJRPE-UHFFFAOYSA-N_conf_0
 ----------------------------------
 Charge =  0 Multiplicity = 1

                         Standard orientation:
 ---------------------------------------------------------------------
 Center     Atomic      Atomic             Coordinates (Angstroms)
 Number     Number       Type             X           Y           Z
 ---------------------------------------------------------------------
      1          7           0       -1.292104    0.000065    0.000009
      2          6           0       -0.781699    1.225760    0.646046
      3          6           0        0.781798    1.225702    0.646036
      4          7           0        1.292104   -0.000026   -0.000016
      5          6           0        0.781732   -1.172408    0.738471
      6          6           0       -0.781801   -1.172350    0.738489
      7          6           0        0.781707   -0.053409   -1.384507
      8          6           0       -0.781737   -0.053363   -1.384491
      9          1           0       -1.179987    1.265380    1.666034
     10          1           0       -1.179876    2.089611    0.102137
     11          1           0        1.180101    1.265283    1.666020
     12          1           0        1.180032    2.089529    0.102131
     13          1           0        1.179899   -1.133335    1.758522
     14          1           0        1.179971   -2.075527    0.262721
     15          1           0       -1.180116   -2.075444    0.262754
     16          1           0       -1.179940   -1.133243    1.758551
     17          1           0        1.179927    0.810165   -1.928768
     18          1           0        1.179912   -0.956287   -1.860798
     19          1           0       -1.179917    0.810228   -1.928755
     20          1           0       -1.180005   -0.956224   -1.860763
 ---------------------------------------------------------------------

 SCF Done:  E(RB3LYP) =  -345.350199614     A.U. after    1 cycles

 Excitation energies and oscillator strengths:

 Excited State   1:      Singlet-A      5.9303 eV  209.07 nm  f=0.0000  <S**2>=0.000
      31 -> 32         0.70252
 This state for optimization and/or second-order correction.
 Total Energy, E(TD-HF/TD-DFT) =  -345.132265541
 Copying the excited state density for this state as the 1-particle RhoCI density.

 Excited State   2:      Singlet-A      6.8517 eV  180.95 nm  f=0.0599  <S**2>=0.000
      31 -> 33         0.70482

 Excited State   3:      Singlet-A      6.8520 eV  180.95 nm  f=0.0599  <S**2>=0.000
      31 -> 34         0.70482

 Excited State   4:      Singlet-A      7.3725 eV  168.17 nm  f=0.0000  <S**2>=0.000
      31 -> 35         0.70321

 Excited State   5:      Singlet-A      7.7849 eV  159.26 nm  f=0.0001  <S**2>=0.000
      30 -> 32         0.51783
      31 -> 36         0.47898

 Excited State   6:      Singlet-A      8.0666 eV  153.70 nm  f=0.0935  <S**2>=0.000
      31 -> 37         0.70553

 Excited State   7:      Singlet-A      8.0667 eV  153.70 nm  f=0.0936  <S**2>=0.000
      31 -> 38         0.70553

 Excited State   8:      Singlet-A      8.1059 eV  152.96 nm  f=0.1933  <S**2>=0.000
      30 -> 32        -0.47342
      31 -> 36         0.51860

 Excited State   9:      Singlet-A      8.6844 eV  142.77 nm  f=0.0000  <S**2>=0.000
      30 -> 33        -0.30754
      30 -> 34         0.15792
      31 -> 39         0.46713
      31 -> 40         0.39384

 Excited State  10:      Singlet-A      8.6844 eV  142.77 nm  f=0.0000  <S**2>=0.000
      30 -> 33        -0.15811
      30 -> 34        -0.30718
      31 -> 39        -0.39408
      31 -> 40         0.46711

 The electronic state is 1-A.
 Alpha  occ. eigenvalues --  -14.32291 -14.32290 -10.20099 -10.20098 -10.20097
 Alpha  occ. eigenvalues --  -10.20082 -10.20081 -10.20080  -0.95394  -0.87460
 Alpha  occ. eigenvalues --   -0.74996  -0.74995  -0.63173  -0.63173  -0.62585
 Alpha  occ. eigenvalues --   -0.51261  -0.49508  -0.49507  -0.47890  -0.40714
 Alpha  occ. eigenvalues --   -0.40714  -0.40466  -0.38899  -0.38897  -0.37442
 Alpha  occ. eigenvalues --   -0.37441  -0.32273  -0.31644  -0.31642  -0.25943
 Alpha  occ. eigenvalues --   -0.18541
 Alpha virt. eigenvalues --    0.07100   0.10674   0.10675   0.12616   0.14379
 Alpha virt. eigenvalues --    0.14826   0.14827   0.17552   0.17553   0.18849
 Alpha virt. eigenvalues --    0.19707   0.19708   0.21236   0.21238   0.23748

 Mulliken charges:
               1
     1  N   -0.295781
     2  C   -0.063095
     3  C   -0.063095
     4  N   -0.295781
     5  C   -0.063049
     6  C   -0.063049
     7  C   -0.063106
     8  C   -0.063106
     9  H    0.080871
    10  H    0.080830
    11  H    0.080869
    12  H    0.080832
    13  H    0.080776
    14  H    0.080858
    15  H    0.080859
    16  H    0.080776
    17  H    0.080802
    18  H    0.080892
    19  H    0.080804
    20  H    0.080891
 Sum of Mulliken charges =  -0.00000

 Dipole moment (field-independent basis, Debye):
    X=             -0.0000    Y=             -0.0008    Z=             -0.0005  Tot=              0.0010
 Quadrupole moment (field-independent basis, Debye-Ang):
   XX=            -55.9030   YY=            -49.9762   ZZ=            -49.9784
   XY=              0.0002   XZ=              0.0001   YZ=              0.0029

 Summary of Natural Population Analysis:

                                       Natural Population
                Natural  -----------------------------------------------
    Atom  No    Charge         Core      Valence    Rydberg      Total
 -----------------------------------------------------------------------
      N    1   -0.34741      1.99942     5.32448    0.02351     7.34741
      C    2   -0.32582      1.99935     4.30318    0.02329     6.32582
      C    3   -0.32582      1.99935     4.30318    0.02329     6.32582
      N    4   -0.34741      1.99942     5.32448    0.02351     7.34741
      C    5   -0.32579      1.99935     4.30315    0.02329     6.32579
      C    6   -0.32579      1.99935     4.30315    0.02329     6.32579
      C    7   -0.32582      1.99935     4.30318    0.02329     6.32582
      C    8   -0.32582      1.99935     4.30318    0.02329     6.32582
      H    9    0.22084      0.00000     0.75910    0.02007     0.77916
      H   10    0.22080      0.00000     0.75912    0.02007     0.77920
      H   11    0.22083      0.00000     0.75910    0.02007     0.77917
      H   12    0.22080      0.00000     0.75912    0.02007     0.77920
      H   13    0.22075      0.00000     0.75916    0.02009     0.77925
      H   14    0.22083      0.00000     0.75911    0.02007     0.77917
      H   15    0.22083      0.00000     0.75910    0.02007     0.77917
      H   16    0.22075      0.00000     0.75916    0.02009     0.77925
      H   17    0.22077      0.00000     0.75914    0.02008     0.77923
      H   18    0.22086      0.00000     0.75908    0.02006     0.77914
      H   19    0.22077      0.00000     0.75914    0.02008     0.77923
      H   20    0.22086      0.00000     0.75908    0.02006     0.77914
 =======================================================================
   * Total *   -0.00000     15.99496    45.57738    0.42767    62.00000

 Normal termination of Gaussian 16 at Thu Jul 18 02:09:21 2024.
