 Gaussian 16, Revision A.03,

 -------------------------------------------------------
 # opt=CalcFc B3LYP/6-31G** SCRF=(Solvent=water) scf=xqc
 -------------------------------------------------------

 ----------------------------------
 HFACYLZERDEVSX-UHFFFAOYSA-N_conf_2
 ----------------------------------
 Symbolic Z-matrix:
 Charge =  0 Multiplicity = 1

 SCF Done:  E(RB3LYP) =  -574.046785344     A.U. after   11 cycles
 SCF Done:  E(RB3LYP) =  -574.050780961     A.U. after   10 cycles
 SCF Done:  E(RB3LYP) =  -574.050916890     A.U. after   12 cycles
 SCF Done:  E(RB3LYP) =  -574.051153958     A.U. after   10 cycles
 SCF Done:  E(RB3LYP) =  -574.051159628     A.U. after    7 cycles
 Optimization completed.
    -- Stationary point found.
 Normal termination of Gaussian 16 at Thu Jul 11 19:45:30 2024.

 ----------------------------------------------------------------------
 # freq B3LYP/6-31G** SCRF=(Solvent=water) volume NMR pop=NPA density=c
 urrent Geom=AllCheck Guess=Read
 ----------------------------------------------------------------------

 Structure from the checkpoint file:  "HFACYLZERDEVSX-UHFFFAOYSA-N_conf_2_1.chk"
 ----------------------------------
 HFACYLZERDEVSX-UHFFFAOYSA-N_conf_2
 ----------------------------------
 Charge =  0 Multiplicity = 1

 SCF Done:  E(RB3LYP) =  -574.051159628     A.U. after    1 cycles

      1  N    Isotropic =   200.1084   Anisotropy =    72.9405

      2  C    Isotropic =    51.2710   Anisotropy =   160.2661

      3  C    Isotropic =    82.1792   Anisotropy =   129.7703

      4  C    Isotropic =    69.6114   Anisotropy =   153.5862

      5  C    Isotropic =    64.7417   Anisotropy =   162.4890

      6  C    Isotropic =    64.7417   Anisotropy =   162.4890

      7  C    Isotropic =    69.6469   Anisotropy =   153.6268

      8  C    Isotropic =    82.2101   Anisotropy =   129.6651

      9  C    Isotropic =    51.2710   Anisotropy =   160.2661

     10  N    Isotropic =   200.1084   Anisotropy =    72.9405

     11  C    Isotropic =    82.1792   Anisotropy =   129.7703

     12  C    Isotropic =    69.6114   Anisotropy =   153.5862

     13  C    Isotropic =    69.6469   Anisotropy =   153.6268

     14  C    Isotropic =    82.2101   Anisotropy =   129.6651

     15  H    Isotropic =    28.5524   Anisotropy =    12.1522

     16  H    Isotropic =    28.6144   Anisotropy =    12.1164

     17  H    Isotropic =    25.0704   Anisotropy =     5.8843

     18  H    Isotropic =    24.4200   Anisotropy =     8.1382

     19  H    Isotropic =    24.4406   Anisotropy =     8.1596

     20  H    Isotropic =    25.0814   Anisotropy =     5.8853

     21  H    Isotropic =    28.6144   Anisotropy =    12.1164

     22  H    Isotropic =    28.5524   Anisotropy =    12.1522

     23  H    Isotropic =    25.0704   Anisotropy =     5.8843

     24  H    Isotropic =    24.4200   Anisotropy =     8.1382

     25  H    Isotropic =    24.4406   Anisotropy =     8.1596

     26  H    Isotropic =    25.0814   Anisotropy =     5.8853

  Exact polarizability: 341.753   0.382 186.938  -0.000  -0.000  70.602
 Approx polarizability: 374.515  -0.495 237.394  -0.000   0.000  90.235

                      1                      2                      3
                      A                      A                      A
 Frequencies --     59.0998                68.7367                93.6924
 Red. masses --      5.0300                 3.5010                 4.5632
 Frc consts  --      0.0104                 0.0097                 0.0236
 IR Inten    --      3.3313                 0.1382                 2.3396

                      4                      5                      6
                      A                      A                      A
 Frequencies --    165.2739               247.0779               271.4419
 Red. masses --      4.7688                 4.6067                 6.5145
 Frc consts  --      0.0767                 0.1657                 0.2828
 IR Inten    --      3.3141                 1.6074                 0.0276

                      7                      8                      9
                      A                      A                      A
 Frequencies --    311.6654               312.7467               339.1949
 Red. masses --      1.0560                 1.0357                 3.8036
 Frc consts  --      0.0604                 0.0597                 0.2578
 IR Inten    --      6.3201                65.6147                 0.4116

                     10                     11                     12
                      A                      A                      A
 Frequencies --    378.2343               413.6175               418.8798
 Red. masses --      3.7253                 3.7268                 3.1312
 Frc consts  --      0.3140                 0.3757                 0.3237
 IR Inten    --     10.4658                13.4759                 4.4224

                     13                     14                     15
                      A                      A                      A
 Frequencies --    424.0431               457.4913               523.4241
 Red. masses --      3.1770                 3.2983                 2.3064
 Frc consts  --      0.3366                 0.4067                 0.3723
 IR Inten    --      0.0533                 8.0829                88.6538

                     16                     17                     18
                      A                      A                      A
 Frequencies --    531.2251               553.3101               612.3853
 Red. masses --      6.0238                 2.0571                 1.6343
 Frc consts  --      1.0016                 0.3711                 0.3611
 IR Inten    --    226.4000                88.0110               200.9857

                     19                     20                     21
                      A                      A                      A
 Frequencies --    613.5465               650.2785               660.7676
 Red. masses --      1.4716                 6.7320                 6.7200
 Frc consts  --      0.3264                 1.6772                 1.7287
 IR Inten    --    894.8000                 0.0243                 2.1635

                     22                     23                     24
                      A                      A                      A
 Frequencies --    688.5054               724.8127               744.0435
 Red. masses --      3.7050                 3.9850                 4.5568
 Frc consts  --      1.0348                 1.2335                 1.4863
 IR Inten    --     14.9534                 4.0595                25.3758

                     25                     26                     27
                      A                      A                      A
 Frequencies --    829.3763               830.1508               830.9426
 Red. masses --      1.6044                 1.4270                 1.3417
 Frc consts  --      0.6502                 0.5794                 0.5458
 IR Inten    --    102.2313                 1.1752                40.6635

                     28                     29                     30
                      A                      A                      A
 Frequencies --    833.5646               851.8756               853.9810
 Red. masses --      2.9336                 1.8821                 4.7269
 Frc consts  --      1.2009                 0.8047                 2.0311
 IR Inten    --      0.8141                20.9523                12.9435

                     31                     32                     33
                      A                      A                      A
 Frequencies --    948.7885               957.6808               959.8139
 Red. masses --      1.2531                 1.3181                 1.3033
 Frc consts  --      0.6646                 0.7123                 0.7074
 IR Inten    --      0.1075                 1.1311                 0.8237

                     34                     35                     36
                      A                      A                      A
 Frequencies --    961.2766              1010.7598              1028.2041
 Red. masses --      1.3123                 5.4613                 2.7570
 Frc consts  --      0.7145                 3.2873                 1.7173
 IR Inten    --      0.0073                 2.9775                 0.2723

                     37                     38                     39
                      A                      A                      A
 Frequencies --   1053.1317              1093.2393              1096.1231
 Red. masses --      2.3832                 1.5321                 1.4216
 Frc consts  --      1.5573                 1.0788                 1.0063
 IR Inten    --      0.1392                 2.1369                 0.2286

                     40                     41                     42
                      A                      A                      A
 Frequencies --   1157.3831              1160.1122              1205.1753
 Red. masses --      1.1873                 1.2167                 1.1154
 Frc consts  --      0.9371                 0.9648                 0.9546
 IR Inten    --      2.6708                28.4012                69.7490

                     43                     44                     45
                      A                      A                      A
 Frequencies --   1215.0333              1303.4490              1312.1611
 Red. masses --      1.1175                 2.2478                 3.0874
 Frc consts  --      0.9720                 2.2500                 3.1320
 IR Inten    --      0.0367                38.5757               332.8069

                     46                     47                     48
                      A                      A                      A
 Frequencies --   1313.4523              1320.1155              1345.4014
 Red. masses --      2.7521                 4.4005                 2.3200
 Frc consts  --      2.7973                 4.5184                 2.4743
 IR Inten    --      0.0392                 0.3905                 1.8551

                     49                     50                     51
                      A                      A                      A
 Frequencies --   1360.0684              1373.8923              1459.4580
 Red. masses --      2.1001                 1.9492                 2.8721
 Frc consts  --      2.2888                 2.1678                 3.6044
 IR Inten    --      1.0120                 8.1311                 0.0310

                     52                     53                     54
                      A                      A                      A
 Frequencies --   1486.4493              1543.6240              1570.4049
 Red. masses --      3.0625                 2.4096                 2.8483
 Frc consts  --      3.9869                 3.3828                 4.1386
 IR Inten    --      0.0501               441.8204                 0.0003

                     55                     56                     57
                      A                      A                      A
 Frequencies --   1609.1082              1624.9498              1654.1502
 Red. masses --      5.4596                 6.4168                 1.4776
 Frc consts  --      8.3288                 9.9826                 2.3820
 IR Inten    --      3.1021                 0.6031                18.2921

                     58                     59                     60
                      A                      A                      A
 Frequencies --   1655.2938              1667.2103              1673.1385
 Red. masses --      1.2719                 2.6853                 3.8088
 Frc consts  --      2.0533                 4.3976                 6.2820
 IR Inten    --     30.5811                10.5121               443.9175

                     61                     62                     63
                      A                      A                      A
 Frequencies --   3172.5600              3172.9030              3174.4205
 Red. masses --      1.0870                 1.0874                 1.0874
 Frc consts  --      6.4462                 6.4497                 6.4561
 IR Inten    --    115.2454                 0.3156                 0.0005

                     64                     65                     66
                      A                      A                      A
 Frequencies --   3174.5894              3189.4537              3192.2338
 Red. masses --      1.0881                 1.0942                 1.0943
 Frc consts  --      6.4611                 6.5583                 6.5699
 IR Inten    --     16.0291                11.0809                 1.2948

                     67                     68                     69
                      A                      A                      A
 Frequencies --   3193.7567              3197.0808              3559.0082
 Red. masses --      1.0924                 1.0935                 1.0485
 Frc consts  --      6.5647                 6.5855                 7.8245
 IR Inten    --     90.1937                 0.0010                69.7266

                     70                     71                     72
                      A                      A                      A
 Frequencies --   3559.1231              3660.9874              3660.9887
 Red. masses --      1.0485                 1.0982                 1.0982
 Frc consts  --      7.8256                 8.6721                 8.6720
 IR Inten    --     11.0979                 3.5017                40.9752

 - Thermochemistry -
 -------------------
 Temperature   298.150 Kelvin.  Pressure   1.00000 Atm.
 Atom     1 has atomic number  7 and mass  14.00307

 Molecular mass:   184.10005 amu.
 Principal axes and moments of inertia in atomic units:
                           1         2         3
     Eigenvalues --   639.971866093.950476621.77119
           X            1.00000   0.00115  -0.00000
           Y           -0.00115   1.00000  -0.00000
           Z            0.00000   0.00000   1.00000
 This molecule is an asymmetric top.
 Rotational symmetry number  1.
 Warning -- assumption of classical behavior for rotation
           may cause significant error
 Rotational temperatures (Kelvin)      0.13534     0.01421     0.01308
 Rotational constants (GHZ):           2.82003     0.29615     0.27255
 Zero-point vibrational energy     564156.1 (Joules/Mol)
                                  134.83655 (Kcal/Mol)
 Warning -- explicit consideration of  19 degrees of freedom as
           vibrations may cause significant error
 Vibrational temperatures:     85.03    98.90   134.80   237.79   355.49
          (Kelvin)            390.54   448.42   449.97   488.03   544.19
                              595.10   602.67   610.10   658.23   753.09
                              764.31   796.09   881.09   882.76   935.61
                              950.70   990.61  1042.84  1070.51  1193.29
                             1194.40  1195.54  1199.31  1225.66  1228.69
                             1365.10  1377.89  1380.96  1383.06  1454.26
                             1479.36  1515.22  1572.93  1577.08  1665.22
                             1669.14  1733.98  1748.16  1875.37  1887.91
                             1889.76  1899.35  1935.73  1956.84  1976.72
                             2099.83  2138.67  2220.93  2259.46  2315.15
                             2337.94  2379.95  2381.60  2398.74  2407.27
                             4564.61  4565.10  4567.28  4567.53  4588.91
                             4592.91  4595.10  4599.89  5120.62  5120.78
                             5267.34  5267.35

 Zero-point correction=                           0.214876 (Hartree/Particle)
 Thermal correction to Energy=                    0.226669
 Thermal correction to Enthalpy=                  0.227613
 Thermal correction to Gibbs Free Energy=         0.177177
 Sum of electronic and zero-point Energies=           -573.836284
 Sum of electronic and thermal Energies=              -573.824490
 Sum of electronic and thermal Enthalpies=            -573.823546
 Sum of electronic and thermal Free Energies=         -573.873983

                     E (Thermal)             CV                S
                      KCal/Mol        Cal/Mol-Kelvin    Cal/Mol-Kelvin
 Total                  142.237             48.221            106.153
 Electronic               0.000              0.000              0.000
 Translational            0.889              2.981             41.537
 Rotational               0.889              2.981             31.624
 Vibrational            140.460             42.259             32.992
 Vibration     1          0.596              1.974              4.487
 Vibration     2          0.598              1.969              4.189
 Vibration     3          0.603              1.954              3.581
 Vibration     4          0.624              1.885              2.489
 Vibration     5          0.661              1.768              1.751
 Vibration     6          0.675              1.726              1.587
 Vibration     7          0.700              1.651              1.353
 Vibration     8          0.701              1.649              1.348
 Vibration     9          0.719              1.597              1.216
 Vibration    10          0.749              1.517              1.046
 Vibration    11          0.777              1.441              0.914
 Vibration    12          0.782              1.429              0.896
 Vibration    13          0.786              1.418              0.878
 Vibration    14          0.816              1.344              0.773
 Vibration    15          0.878              1.198              0.602
 Vibration    16          0.886              1.181              0.584
 Vibration    17          0.909              1.132              0.537
 Vibration    18          0.972              1.006              0.429
 Vibration    19          0.973              1.003              0.427

 Optimization completed.
    -- Stationary point found.
 Normal termination of Gaussian 16 at Thu Jul 11 20:15:36 2024.
 Gaussian 16:  EM64L-G16RevA.03 25-Dec-2016

 ----------------------------------------------------------------------
 # TD(NStates=10, Root=1) B3LYP/6-31G** SCRF=(Solvent=water) volume pop
 =NPA density=current Geom=AllCheck Guess=Read
 ----------------------------------------------------------------------

 Structure from the checkpoint file:  "HFACYLZERDEVSX-UHFFFAOYSA-N_conf_2_2.chk"
 ----------------------------------
 HFACYLZERDEVSX-UHFFFAOYSA-N_conf_2
 ----------------------------------
 Charge =  0 Multiplicity = 1

                         Standard orientation:
 ---------------------------------------------------------------------
 Center     Atomic      Atomic             Coordinates (Angstroms)
 Number     Number       Type             X           Y           Z
 ---------------------------------------------------------------------
      1          7           0        4.990385   -0.021988    0.064939
      2          6           0        3.595999   -0.002580    0.002676
      3          6           0        2.871234    1.151504    0.351375
      4          6           0        1.479928    1.145323    0.353142
      5          6           0        0.741617   -0.000735    0.004819
      6          6           0       -0.741617    0.000735    0.004819
      7          6           0       -1.477962    1.147350   -0.345873
      8          6           0       -2.869306    1.155211   -0.346766
      9          6           0       -3.595999    0.002580    0.002676
     10          7           0       -4.990385    0.021988    0.064939
     11          6           0       -2.871234   -1.151504    0.351375
     12          6           0       -1.479928   -1.145323    0.353142
     13          6           0        1.477962   -1.147350   -0.345873
     14          6           0        2.869306   -1.155211   -0.346766
     15          1           0        5.431690    0.881368   -0.052516
     16          1           0        5.430061   -0.719437   -0.522247
     17          1           0        3.407488    2.053859    0.634361
     18          1           0        0.956137    2.049036    0.651360
     19          1           0       -0.952636    2.048159   -0.650116
     20          1           0       -3.403675    2.058137   -0.631648
     21          1           0       -5.430061    0.719437   -0.522247
     22          1           0       -5.431690   -0.881368   -0.052516
     23          1           0       -3.407488   -2.053859    0.634361
     24          1           0       -0.956137   -2.049036    0.651360
     25          1           0        0.952636   -2.048159   -0.650116
     26          1           0        3.403675   -2.058137   -0.631648
 ---------------------------------------------------------------------

 SCF Done:  E(RB3LYP) =  -574.051159628     A.U. after    1 cycles

 Excitation energies and oscillator strengths:

 Excited State   1:      Singlet-A      4.2031 eV  294.98 nm  f=1.1725  <S**2>=0.000
      49 -> 50         0.70527
 This state for optimization and/or second-order correction.
 Total Energy, E(TD-HF/TD-DFT) =  -573.896698346
 Copying the excited state density for this state as the 1-particle RhoCI density.

 Excited State   2:      Singlet-A      4.2317 eV  292.99 nm  f=0.0088  <S**2>=0.000
      47 -> 50        -0.13541
      49 -> 51         0.68980

 Excited State   3:      Singlet-A      4.4236 eV  280.28 nm  f=0.0995  <S**2>=0.000
      46 -> 50        -0.16070
      49 -> 52         0.68283

 Excited State   4:      Singlet-A      5.2324 eV  236.96 nm  f=0.0001  <S**2>=0.000
      48 -> 50         0.65828
      49 -> 53        -0.23769

 Excited State   5:      Singlet-A      5.2421 eV  236.52 nm  f=0.0168  <S**2>=0.000
      46 -> 50        -0.16520
      48 -> 51         0.67678

 Excited State   6:      Singlet-A      5.3857 eV  230.21 nm  f=0.0007  <S**2>=0.000
      47 -> 50        -0.22632
      48 -> 52         0.65923

 Excited State   7:      Singlet-A      5.7964 eV  213.90 nm  f=0.0000  <S**2>=0.000
      46 -> 51         0.20712
      47 -> 52         0.13854
      48 -> 50         0.19459
      49 -> 53         0.62704

 Excited State   8:      Singlet-A      5.9270 eV  209.19 nm  f=0.0325  <S**2>=0.000
      47 -> 50         0.64649
      48 -> 52         0.23271
      49 -> 51         0.11085

 Excited State   9:      Singlet-A      5.9692 eV  207.71 nm  f=0.3486  <S**2>=0.000
      45 -> 52         0.10133
      46 -> 50         0.65739
      48 -> 51         0.17500
      49 -> 52         0.13743

 Excited State  10:      Singlet-A      6.1003 eV  203.24 nm  f=0.1188  <S**2>=0.000
      46 -> 52        -0.32562
      47 -> 51         0.62635

 The electronic state is 1-A.
 Alpha  occ. eigenvalues --  -14.33657 -14.33657 -10.22646 -10.22646 -10.18766
 Alpha  occ. eigenvalues --  -10.18738 -10.18590 -10.18590 -10.18582 -10.18581
 Alpha  occ. eigenvalues --  -10.18183 -10.18183 -10.18179 -10.18179  -0.91399
 Alpha  occ. eigenvalues --   -0.91350  -0.84959  -0.82292  -0.75031  -0.74426
 Alpha  occ. eigenvalues --   -0.73725  -0.69604  -0.62001  -0.61050  -0.59699
 Alpha  occ. eigenvalues --   -0.57200  -0.52484  -0.50792  -0.50725  -0.49365
 Alpha  occ. eigenvalues --   -0.48329  -0.43606  -0.43237  -0.43195  -0.41656
 Alpha  occ. eigenvalues --   -0.41339  -0.40801  -0.39402  -0.38291  -0.37262
 Alpha  occ. eigenvalues --   -0.34458  -0.34391  -0.32937  -0.32083  -0.29461
 Alpha  occ. eigenvalues --   -0.24968  -0.24832  -0.22173  -0.18280
 Alpha virt. eigenvalues --   -0.00994  -0.00318   0.00332   0.04710   0.09482
 Alpha virt. eigenvalues --    0.09526   0.10908   0.12080   0.12332   0.13626
 Alpha virt. eigenvalues --    0.15562   0.16185   0.17212   0.18503   0.18608

 Mulliken charges:
               1
     1  N   -0.640541
     2  C    0.231341
     3  C   -0.125961
     4  C   -0.154703
     5  C    0.041234
     6  C    0.041234
     7  C   -0.154538
     8  C   -0.126275
     9  C    0.231341
    10  N   -0.640541
    11  C   -0.125961
    12  C   -0.154703
    13  C   -0.154538
    14  C   -0.126275
    15  H    0.285483
    16  H    0.284718
    17  H    0.093967
    18  H    0.085857
    19  H    0.085865
    20  H    0.093552
    21  H    0.284718
    22  H    0.285483
    23  H    0.093967
    24  H    0.085857
    25  H    0.085865
    26  H    0.093552
 Sum of Mulliken charges =  -0.00000

 Dipole moment (field-independent basis, Debye):
    X=             -0.0000    Y=             -0.0000    Z=             -2.3941  Tot=              2.3941
 Quadrupole moment (field-independent basis, Debye-Ang):
   XX=            -35.3287   YY=            -72.7980   ZZ=            -87.0674
   XY=              3.9519   XZ=             -0.0000   YZ=             -0.0000

 Summary of Natural Population Analysis:

                                       Natural Population
                Natural  -----------------------------------------------
    Atom  No    Charge         Core      Valence    Rydberg      Total
 -----------------------------------------------------------------------
      N    1   -0.79921      1.99951     5.78687    0.01283     7.79921
      C    2    0.12002      1.99897     3.86220    0.01880     5.87998
      C    3   -0.26750      1.99906     4.25486    0.01358     6.26750
      C    4   -0.24465      1.99908     4.23116    0.01441     6.24465
      C    5   -0.09208      1.99902     4.07602    0.01704     6.09208
      C    6   -0.09208      1.99902     4.07602    0.01704     6.09208
      C    7   -0.24468      1.99908     4.23118    0.01442     6.24468
      C    8   -0.26794      1.99906     4.25529    0.01359     6.26794
      C    9    0.12002      1.99897     3.86220    0.01880     5.87998
      N   10   -0.79921      1.99951     5.78687    0.01283     7.79921
      C   11   -0.26750      1.99906     4.25486    0.01358     6.26750
      C   12   -0.24465      1.99908     4.23116    0.01441     6.24465
      C   13   -0.24468      1.99908     4.23118    0.01442     6.24468
      C   14   -0.26794      1.99906     4.25529    0.01359     6.26794
      H   15    0.41712      0.00000     0.57994    0.00294     0.58288
      H   16    0.41642      0.00000     0.58049    0.00309     0.58358
      H   17    0.24250      0.00000     0.75591    0.00159     0.75750
      H   18    0.23896      0.00000     0.75925    0.00179     0.76104
      H   19    0.23891      0.00000     0.75930    0.00179     0.76109
      H   20    0.24213      0.00000     0.75624    0.00163     0.75787
      H   21    0.41642      0.00000     0.58049    0.00309     0.58358
      H   22    0.41712      0.00000     0.57994    0.00294     0.58288
      H   23    0.24250      0.00000     0.75591    0.00159     0.75750
      H   24    0.23896      0.00000     0.75925    0.00179     0.76104
      H   25    0.23891      0.00000     0.75930    0.00179     0.76109
      H   26    0.24213      0.00000     0.75624    0.00163     0.75787
 =======================================================================
   * Total *    0.00000     27.98753    69.77745    0.23502    98.00000

 Normal termination of Gaussian 16 at Thu Jul 11 20:51:04 2024.
