 Gaussian 16, Revision A.03,

 -------------------------------------------------------
 # opt=CalcFc B3LYP/6-31G** SCRF=(Solvent=water) scf=xqc
 -------------------------------------------------------

 ----------------------------------
 HFACYLZERDEVSX-UHFFFAOYSA-N_conf_0
 ----------------------------------
 Symbolic Z-matrix:
 Charge =  0 Multiplicity = 1

 SCF Done:  E(RB3LYP) =  -574.046821070     A.U. after   11 cycles
 SCF Done:  E(RB3LYP) =  -574.050793577     A.U. after   11 cycles
 SCF Done:  E(RB3LYP) =  -574.050927797     A.U. after   12 cycles
 SCF Done:  E(RB3LYP) =  -574.051156086     A.U. after   10 cycles
 SCF Done:  E(RB3LYP) =  -574.051161608     A.U. after    8 cycles
 Optimization completed.
    -- Stationary point found.
 Normal termination of Gaussian 16 at Thu Jul 11 17:45:22 2024.

 ----------------------------------------------------------------------
 # freq B3LYP/6-31G** SCRF=(Solvent=water) volume NMR pop=NPA density=c
 urrent Geom=AllCheck Guess=Read
 ----------------------------------------------------------------------

 Structure from the checkpoint file:  "HFACYLZERDEVSX-UHFFFAOYSA-N_conf_0_1.chk"
 ----------------------------------
 HFACYLZERDEVSX-UHFFFAOYSA-N_conf_0
 ----------------------------------
 Charge =  0 Multiplicity = 1

 SCF Done:  E(RB3LYP) =  -574.051161608     A.U. after    1 cycles

      1  N    Isotropic =   200.1074   Anisotropy =    72.9398

      2  C    Isotropic =    51.2697   Anisotropy =   160.2659

      3  C    Isotropic =    82.1872   Anisotropy =   129.7566

      4  C    Isotropic =    69.6313   Anisotropy =   153.6294

      5  C    Isotropic =    64.7411   Anisotropy =   162.4896

      6  C    Isotropic =    64.7411   Anisotropy =   162.4896

      7  C    Isotropic =    69.6313   Anisotropy =   153.6294

      8  C    Isotropic =    82.1872   Anisotropy =   129.7566

      9  C    Isotropic =    51.2697   Anisotropy =   160.2659

     10  N    Isotropic =   200.1074   Anisotropy =    72.9398

     11  C    Isotropic =    82.1996   Anisotropy =   129.6880

     12  C    Isotropic =    69.6279   Anisotropy =   153.5850

     13  C    Isotropic =    69.6279   Anisotropy =   153.5850

     14  C    Isotropic =    82.1996   Anisotropy =   129.6880

     15  H    Isotropic =    28.5529   Anisotropy =    12.1494

     16  H    Isotropic =    28.6130   Anisotropy =    12.1302

     17  H    Isotropic =    25.0748   Anisotropy =     5.8997

     18  H    Isotropic =    24.4349   Anisotropy =     8.1289

     19  H    Isotropic =    24.4349   Anisotropy =     8.1289

     20  H    Isotropic =    25.0748   Anisotropy =     5.8997

     21  H    Isotropic =    28.6130   Anisotropy =    12.1302

     22  H    Isotropic =    28.5529   Anisotropy =    12.1494

     23  H    Isotropic =    25.0769   Anisotropy =     5.8704

     24  H    Isotropic =    24.4255   Anisotropy =     8.1698

     25  H    Isotropic =    24.4255   Anisotropy =     8.1698

     26  H    Isotropic =    25.0769   Anisotropy =     5.8704

  Exact polarizability:  70.602   1.444 341.740   0.000   0.000 186.938
 Approx polarizability:  90.241  -1.649 374.500  -0.000   0.000 237.394

                      1                      2                      3
                      B                      A                      A
 Frequencies --     59.1240                68.7608                93.6983
 Red. masses --      5.0288                 3.4978                 4.5705
 Frc consts  --      0.0104                 0.0097                 0.0236
 IR Inten    --      4.6200                 1.5853                 1.6127

                      4                      5                      6
                      A                      B                      A
 Frequencies --    165.2953               247.0902               271.4219
 Red. masses --      4.7748                 4.5853                 6.5429
 Frc consts  --      0.0769                 0.1649                 0.2840
 IR Inten    --      0.0453                 7.7018                 0.1054

                      7                      8                      9
                      B                      A                      B
 Frequencies --    311.8130               312.6447               339.2106
 Red. masses --      1.0550                 1.0368                 3.8007
 Frc consts  --      0.0604                 0.0597                 0.2577
 IR Inten    --      6.7714                65.6134                 2.7980

                     10                     11                     12
                      A                      A                      B
 Frequencies --    378.2983               413.7216               418.8589
 Red. masses --      3.7335                 3.7389                 3.1342
 Frc consts  --      0.3148                 0.3771                 0.3240
 IR Inten    --      1.0357                 0.6172                 3.9715

                     13                     14                     15
                      A                      B                      B
 Frequencies --    424.0699               457.4211               521.1704
 Red. masses --      3.1763                 3.2851                 2.4846
 Frc consts  --      0.3365                 0.4050                 0.3976
 IR Inten    --      0.5073                22.3512               290.0999

                     16                     17                     18
                      B                      A                      B
 Frequencies --    534.2853               552.6309               611.7980
 Red. masses --      5.5978                 1.9926                 1.4679
 Frc consts  --      0.9415                 0.3585                 0.3237
 IR Inten    --     66.3302                13.0238              1131.9943

                     19                     20                     21
                      A                      B                      A
 Frequencies --    614.2784               650.2817               660.7393
 Red. masses --      1.6367                 6.7183                 6.7485
 Frc consts  --      0.3639                 1.6738                 1.7359
 IR Inten    --     12.3434                 1.8899                 0.4752

                     22                     23                     24
                      A                      B                      A
 Frequencies --    688.8207               724.0364               744.7327
 Red. masses --      3.6207                 4.1137                 4.5007
 Frc consts  --      1.0122                 1.2706                 1.4707
 IR Inten    --      0.9162                24.5939                 3.3198

                     25                     26                     27
                      B                      A                      B
 Frequencies --    826.5326               830.5242               830.6517
 Red. masses --      2.0711                 1.2748                 1.2729
 Frc consts  --      0.8336                 0.5181                 0.5174
 IR Inten    --     86.1446                 0.2555                 6.8914

                     28                     29                     30
                      B                      A                      A
 Frequencies --    838.2140               847.6469               856.2352
 Red. masses --      2.9496                 2.2688                 3.1098
 Frc consts  --      1.2210                 0.9604                 1.3433
 IR Inten    --     71.7342                 8.0341                 7.2936

                     31                     32                     33
                      B                      B                      A
 Frequencies --    948.7868               957.7117               959.7553
 Red. masses --      1.2531                 1.3183                 1.3032
 Frc consts  --      0.6646                 0.7124                 0.7072
 IR Inten    --      0.2942                 1.0610                 0.7908

                     34                     35                     36
                      A                      B                      A
 Frequencies --    961.3328              1010.7582              1028.2133
 Red. masses --      1.3122                 5.4618                 2.7569
 Frc consts  --      0.7145                 3.2876                 1.7172
 IR Inten    --      0.0132                 3.4379                 0.0189

                     37                     38                     39
                      B                      A                      B
 Frequencies --   1053.1394              1093.2740              1096.1542
 Red. masses --      2.3832                 1.5321                 1.4215
 Frc consts  --      1.5574                 1.0789                 1.0064
 IR Inten    --      0.1578                 2.1186                 0.2396

                     40                     41                     42
                      B                      A                      B
 Frequencies --   1157.3834              1160.1153              1205.1881
 Red. masses --      1.1873                 1.2168                 1.1155
 Frc consts  --      0.9371                 0.9648                 0.9546
 IR Inten    --      2.7002                28.3881                69.8172

                     43                     44                     45
                      A                      A                      B
 Frequencies --   1215.0484              1303.4526              1312.1518
 Red. masses --      1.1175                 2.2479                 3.0875
 Frc consts  --      0.9720                 2.2502                 3.1320
 IR Inten    --      0.0024                38.5727               333.1970

                     46                     47                     48
                      A                      A                      B
 Frequencies --   1313.4615              1320.1095              1345.4036
 Red. masses --      2.7509                 4.4031                 2.3216
 Frc consts  --      2.7962                 4.5210                 2.4759
 IR Inten    --      0.0154                 0.0309                 1.8726

                     49                     50                     51
                      B                      A                      A
 Frequencies --   1360.0822              1373.9105              1459.4682
 Red. masses --      2.0988                 1.9491                 2.8716
 Frc consts  --      2.2875                 2.1677                 3.6038
 IR Inten    --      1.0263                 8.1298                 0.0290

                     52                     53                     54
                      B                      B                      A
 Frequencies --   1486.4589              1543.6306              1570.4114
 Red. masses --      3.0621                 2.4096                 2.8483
 Frc consts  --      3.9864                 3.3829                 4.1387
 IR Inten    --      0.0542               441.8742                 0.0001

                     55                     56                     57
                      A                      B                      A
 Frequencies --   1609.1118              1624.9517              1654.1702
 Red. masses --      5.4595                 6.4166                 1.4780
 Frc consts  --      8.3287                 9.9824                 2.3828
 IR Inten    --      3.0951                 0.6101                 1.5398

                     58                     59                     60
                      B                      A                      B
 Frequencies --   1655.3345              1667.2142              1673.1405
 Red. masses --      1.2721                 2.6830                 3.8070
 Frc consts  --      2.0538                 4.3940                 6.2791
 IR Inten    --     51.6300                 0.9149               449.1531

                     61                     62                     63
                      B                      B                      A
 Frequencies --   3172.5558              3172.9055              3174.4129
 Red. masses --      1.0870                 1.0874                 1.0874
 Frc consts  --      6.4462                 6.4497                 6.4563
 IR Inten    --    114.1224                 1.4605                 0.6054

                     64                     65                     66
                      A                      B                      B
 Frequencies --   3174.5945              3189.4525              3192.2328
 Red. masses --      1.0881                 1.0942                 1.0943
 Frc consts  --      6.4609                 6.5583                 6.5699
 IR Inten    --     15.4222                11.0816                 1.2953

                     67                     68                     69
                      A                      A                      B
 Frequencies --   3193.7528              3197.0778              3558.9724
 Red. masses --      1.0924                 1.0935                 1.0485
 Frc consts  --      6.5647                 6.5854                 7.8244
 IR Inten    --     90.1900                 0.0097                79.6855

                     70                     71                     72
                      A                      A                      B
 Frequencies --   3559.0982              3660.9471              3660.9484
 Red. masses --      1.0485                 1.0982                 1.0982
 Frc consts  --      7.8255                 8.6718                 8.6719
 IR Inten    --      1.1240                40.9712                 3.5107

 - Thermochemistry -
 -------------------
 Temperature   298.150 Kelvin.  Pressure   1.00000 Atm.
 Atom     1 has atomic number  7 and mass  14.00307

 Molecular mass:   184.10005 amu.
 Principal axes and moments of inertia in atomic units:
                           1         2         3
     Eigenvalues --   639.969846093.942756621.76662
           X           -0.00123  -0.00000   1.00000
           Y            1.00000  -0.00000   0.00123
           Z            0.00000   1.00000   0.00000
 This molecule is an asymmetric top.
 Rotational symmetry number  2.
 Warning -- assumption of classical behavior for rotation
           may cause significant error
 Rotational temperatures (Kelvin)      0.13534     0.01421     0.01308
 Rotational constants (GHZ):           2.82004     0.29615     0.27255
 Zero-point vibrational energy     564160.6 (Joules/Mol)
                                  134.83761 (Kcal/Mol)
 Warning -- explicit consideration of  19 degrees of freedom as
           vibrations may cause significant error
 Vibrational temperatures:     85.07    98.93   134.81   237.82   355.51
          (Kelvin)            390.52   448.63   449.83   488.05   544.29
                              595.25   602.64   610.14   658.13   749.85
                              768.72   795.11   880.24   883.81   935.61
                              950.66   991.06  1041.73  1071.50  1189.20
                             1194.94  1195.12  1206.00  1219.57  1231.93
                             1365.09  1377.93  1380.87  1383.14  1454.26
                             1479.37  1515.23  1572.98  1577.12  1665.22
                             1669.15  1734.00  1748.18  1875.38  1887.89
                             1889.78  1899.34  1935.74  1956.86  1976.75
                             2099.85  2138.68  2220.94  2259.47  2315.15
                             2337.94  2379.98  2381.66  2398.75  2407.28
                             4564.60  4565.10  4567.27  4567.53  4588.91
                             4592.91  4595.10  4599.88  5120.57  5120.75
                             5267.29  5267.29

 Zero-point correction=                           0.214877 (Hartree/Particle)
 Thermal correction to Energy=                    0.226670
 Thermal correction to Enthalpy=                  0.227615
 Thermal correction to Gibbs Free Energy=         0.177834
 Sum of electronic and zero-point Energies=           -573.836284
 Sum of electronic and thermal Energies=              -573.824491
 Sum of electronic and thermal Enthalpies=            -573.823547
 Sum of electronic and thermal Free Energies=         -573.873328

                     E (Thermal)             CV                S
                      KCal/Mol        Cal/Mol-Kelvin    Cal/Mol-Kelvin
 Total                  142.238             48.220            104.772
 Electronic               0.000              0.000              0.000
 Translational            0.889              2.981             41.537
 Rotational               0.889              2.981             30.247
 Vibrational            140.460             42.258             32.988
 Vibration     1          0.596              1.974              4.486
 Vibration     2          0.598              1.969              4.189
 Vibration     3          0.603              1.954              3.581
 Vibration     4          0.624              1.885              2.488
 Vibration     5          0.661              1.768              1.751
 Vibration     6          0.675              1.726              1.587
 Vibration     7          0.700              1.651              1.353
 Vibration     8          0.701              1.650              1.348
 Vibration     9          0.719              1.597              1.216
 Vibration    10          0.749              1.516              1.046
 Vibration    11          0.777              1.440              0.914
 Vibration    12          0.782              1.429              0.896
 Vibration    13          0.786              1.418              0.878
 Vibration    14          0.816              1.344              0.774
 Vibration    15          0.876              1.203              0.607
 Vibration    16          0.889              1.174              0.578
 Vibration    17          0.908              1.134              0.539
 Vibration    18          0.971              1.007              0.430
 Vibration    19          0.974              1.002              0.426

 Optimization completed.
    -- Stationary point found.
 Normal termination of Gaussian 16 at Thu Jul 11 18:00:01 2024.
 Gaussian 16:  EM64L-G16RevA.03 25-Dec-2016

 ----------------------------------------------------------------------
 # TD(NStates=10, Root=1) B3LYP/6-31G** SCRF=(Solvent=water) volume pop
 =NPA density=current Geom=AllCheck Guess=Read
 ----------------------------------------------------------------------

 Structure from the checkpoint file:  "HFACYLZERDEVSX-UHFFFAOYSA-N_conf_0_2.chk"
 ----------------------------------
 HFACYLZERDEVSX-UHFFFAOYSA-N_conf_0
 ----------------------------------
 Charge =  0 Multiplicity = 1

                         Standard orientation:
 ---------------------------------------------------------------------
 Center     Atomic      Atomic             Coordinates (Angstroms)
 Number     Number       Type             X           Y           Z
 ---------------------------------------------------------------------
      1          7           0       -0.062012    4.990390   -0.019393
      2          6           0        0.000551    3.595995   -0.001021
      3          6           0       -0.347964    2.870337    1.152580
      4          6           0       -0.349219    1.479055    1.145522
      5          6           0       -0.000551    0.741615   -0.001003
      6          6           0        0.000551   -0.741615   -0.001003
      7          6           0        0.349219   -1.479055    1.145522
      8          6           0        0.347964   -2.870337    1.152580
      9          6           0       -0.000551   -3.595995   -0.001021
     10          7           0        0.062012   -4.990390   -0.019393
     11          6           0       -0.350183   -2.870198   -1.154134
     12          6           0       -0.349797   -1.478829   -1.147154
     13          6           0        0.349797    1.478829   -1.147154
     14          6           0        0.350183    2.870198   -1.154134
     15          1           0        0.055554    5.431020    0.884281
     16          1           0        0.525035    5.430670   -0.716579
     17          1           0       -0.631133    3.405917    2.055280
     18          1           0       -0.647225    0.954679    2.048962
     19          1           0        0.647225   -0.954679    2.048962
     20          1           0        0.631133   -3.405917    2.055280
     21          1           0       -0.525035   -5.430670   -0.716579
     22          1           0       -0.055554   -5.431020    0.884281
     23          1           0       -0.634900   -3.405250   -2.056704
     24          1           0       -0.654262   -0.954082   -2.048230
     25          1           0        0.654262    0.954082   -2.048230
     26          1           0        0.634900    3.405250   -2.056704
 ---------------------------------------------------------------------

 SCF Done:  E(RB3LYP) =  -574.051161608     A.U. after    1 cycles

 Excitation energies and oscillator strengths:

 Excited State   1:      Singlet-B      4.2031 eV  294.98 nm  f=1.1722  <S**2>=0.000
      49 -> 50         0.70523
 This state for optimization and/or second-order correction.
 Total Energy, E(TD-HF/TD-DFT) =  -573.896701576
 Copying the excited state density for this state as the 1-particle RhoCI density.

 Excited State   2:      Singlet-B      4.2317 eV  292.99 nm  f=0.0090  <S**2>=0.000
      47 -> 50         0.13542
      49 -> 51         0.68976

 Excited State   3:      Singlet-A      4.4237 eV  280.27 nm  f=0.0995  <S**2>=0.000
      46 -> 50        -0.16070
      49 -> 52         0.68283

 Excited State   4:      Singlet-A      5.2324 eV  236.96 nm  f=0.0000  <S**2>=0.000
      48 -> 50         0.65629
      49 -> 53        -0.23673

 Excited State   5:      Singlet-A      5.2422 eV  236.51 nm  f=0.0167  <S**2>=0.000
      46 -> 50        -0.16478
      48 -> 51         0.67464

 Excited State   6:      Singlet-B      5.3858 eV  230.21 nm  f=0.0007  <S**2>=0.000
      47 -> 50         0.22636
      48 -> 52         0.65923

 Excited State   7:      Singlet-A      5.7976 eV  213.86 nm  f=0.0001  <S**2>=0.000
      46 -> 51         0.20773
      47 -> 52        -0.13874
      48 -> 50         0.19430
      49 -> 53         0.62692

 Excited State   8:      Singlet-B      5.9269 eV  209.19 nm  f=0.0325  <S**2>=0.000
      47 -> 50         0.64650
      48 -> 52        -0.23275
      49 -> 51        -0.11086

 Excited State   9:      Singlet-A      5.9692 eV  207.71 nm  f=0.3486  <S**2>=0.000
      45 -> 52         0.10139
      46 -> 50         0.65730
      48 -> 51         0.17500
      49 -> 52         0.13742

 Excited State  10:      Singlet-B      6.1003 eV  203.24 nm  f=0.1187  <S**2>=0.000
      46 -> 52         0.32563
      47 -> 51         0.62639

 The electronic state is 1-A.
 Alpha  occ. eigenvalues --  -14.33657 -14.33657 -10.22646 -10.22646 -10.18766
 Alpha  occ. eigenvalues --  -10.18739 -10.18590 -10.18590 -10.18582 -10.18581
 Alpha  occ. eigenvalues --  -10.18183 -10.18182 -10.18180 -10.18180  -0.91399
 Alpha  occ. eigenvalues --   -0.91350  -0.84959  -0.82292  -0.75031  -0.74426
 Alpha  occ. eigenvalues --   -0.73725  -0.69604  -0.62001  -0.61050  -0.59699
 Alpha  occ. eigenvalues --   -0.57200  -0.52484  -0.50791  -0.50725  -0.49365
 Alpha  occ. eigenvalues --   -0.48328  -0.43606  -0.43238  -0.43190  -0.41656
 Alpha  occ. eigenvalues --   -0.41344  -0.40818  -0.39438  -0.37922  -0.37639
 Alpha  occ. eigenvalues --   -0.34412  -0.34327  -0.32974  -0.32101  -0.29455
 Alpha  occ. eigenvalues --   -0.24969  -0.24832  -0.22173  -0.18281
 Alpha virt. eigenvalues --   -0.00994  -0.00318   0.00332   0.04713   0.09293
 Alpha virt. eigenvalues --    0.09731   0.10908   0.12043   0.12338   0.13641
 Alpha virt. eigenvalues --    0.15578   0.16180   0.17184   0.18498   0.18622

 Mulliken charges:
               1
     1  N   -0.640530
     2  C    0.231334
     3  C   -0.125744
     4  C   -0.155235
     5  C    0.041240
     6  C    0.041240
     7  C   -0.155235
     8  C   -0.125744
     9  C    0.231334
    10  N   -0.640530
    11  C   -0.126503
    12  C   -0.154001
    13  C   -0.154001
    14  C   -0.126503
    15  H    0.285499
    16  H    0.284671
    17  H    0.093951
    18  H    0.085682
    19  H    0.085682
    20  H    0.093951
    21  H    0.284671
    22  H    0.285499
    23  H    0.093579
    24  H    0.086057
    25  H    0.086057
    26  H    0.093579
 Sum of Mulliken charges =  -0.00000

 Dipole moment (field-independent basis, Debye):
    X=              0.0000    Y=             -0.0000    Z=              0.7059  Tot=              0.7059
 Quadrupole moment (field-independent basis, Debye-Ang):
   XX=            -87.0540   YY=            -35.3421   ZZ=            -72.7932
   XY=             13.2614   XZ=             -0.0000   YZ=             -0.0000

 Summary of Natural Population Analysis:

                                       Natural Population
                Natural  -----------------------------------------------
    Atom  No    Charge         Core      Valence    Rydberg      Total
 -----------------------------------------------------------------------
      N    1   -0.79922      1.99951     5.78688    0.01283     7.79922
      C    2    0.12004      1.99897     3.86218    0.01880     5.87996
      C    3   -0.26708      1.99906     4.25447    0.01356     6.26708
      C    4   -0.24578      1.99908     4.23226    0.01445     6.24578
      C    5   -0.09207      1.99902     4.07601    0.01704     6.09207
      C    6   -0.09207      1.99902     4.07601    0.01704     6.09207
      C    7   -0.24578      1.99908     4.23226    0.01445     6.24578
      C    8   -0.26708      1.99906     4.25447    0.01356     6.26708
      C    9    0.12004      1.99897     3.86218    0.01880     5.87996
      N   10   -0.79922      1.99951     5.78688    0.01283     7.79922
      C   11   -0.26837      1.99906     4.25570    0.01362     6.26837
      C   12   -0.24353      1.99908     4.23008    0.01438     6.24353
      C   13   -0.24353      1.99908     4.23008    0.01438     6.24353
      C   14   -0.26837      1.99906     4.25570    0.01362     6.26837
      H   15    0.41713      0.00000     0.57994    0.00293     0.58287
      H   16    0.41637      0.00000     0.58053    0.00310     0.58363
      H   17    0.24250      0.00000     0.75591    0.00159     0.75750
      H   18    0.23887      0.00000     0.75934    0.00179     0.76113
      H   19    0.23887      0.00000     0.75934    0.00179     0.76113
      H   20    0.24250      0.00000     0.75591    0.00159     0.75750
      H   21    0.41637      0.00000     0.58053    0.00310     0.58363
      H   22    0.41713      0.00000     0.57994    0.00293     0.58287
      H   23    0.24214      0.00000     0.75623    0.00163     0.75786
      H   24    0.23901      0.00000     0.75921    0.00179     0.76099
      H   25    0.23901      0.00000     0.75921    0.00179     0.76099
      H   26    0.24214      0.00000     0.75623    0.00163     0.75786
 =======================================================================
   * Total *    0.00000     27.98753    69.77743    0.23504    98.00000

 Normal termination of Gaussian 16 at Thu Jul 11 18:15:34 2024.
