 Gaussian 16, Revision A.03,

 -------------------------------------------------------
 # opt=CalcFc B3LYP/6-31G** SCRF=(Solvent=water) scf=xqc
 -------------------------------------------------------

 ----------------------------------
 HFACYLZERDEVSX-UHFFFAOYSA-N_conf_1
 ----------------------------------
 Symbolic Z-matrix:
 Charge =  0 Multiplicity = 1

 SCF Done:  E(RB3LYP) =  -574.046821015     A.U. after   11 cycles
 SCF Done:  E(RB3LYP) =  -574.050793566     A.U. after   11 cycles
 SCF Done:  E(RB3LYP) =  -574.050927782     A.U. after   12 cycles
 SCF Done:  E(RB3LYP) =  -574.051156085     A.U. after   10 cycles
 SCF Done:  E(RB3LYP) =  -574.051165801     A.U. after    8 cycles
 SCF Done:  E(RB3LYP) =  -574.051161625     A.U. after    7 cycles
 SCF Done:  E(RB3LYP) =  -574.051161647     A.U. after    6 cycles
 Optimization completed.
    -- Stationary point found.
 Normal termination of Gaussian 16 at Thu Jul 11 17:48:21 2024.

 ----------------------------------------------------------------------
 # freq B3LYP/6-31G** SCRF=(Solvent=water) volume NMR pop=NPA density=c
 urrent Geom=AllCheck Guess=Read
 ----------------------------------------------------------------------

 Structure from the checkpoint file:  "HFACYLZERDEVSX-UHFFFAOYSA-N_conf_1_1.chk"
 ----------------------------------
 HFACYLZERDEVSX-UHFFFAOYSA-N_conf_1
 ----------------------------------
 Charge =  0 Multiplicity = 1

 SCF Done:  E(RB3LYP) =  -574.051161647     A.U. after    1 cycles

      1  N    Isotropic =   200.1061   Anisotropy =    72.9428

      2  C    Isotropic =    51.2701   Anisotropy =   160.2570

      3  C    Isotropic =    82.1998   Anisotropy =   129.6857

      4  C    Isotropic =    69.6292   Anisotropy =   153.5742

      5  C    Isotropic =    64.7423   Anisotropy =   162.5218

      6  C    Isotropic =    64.7423   Anisotropy =   162.5218

      7  C    Isotropic =    69.6345   Anisotropy =   153.6218

      8  C    Isotropic =    82.1879   Anisotropy =   129.7632

      9  C    Isotropic =    51.2701   Anisotropy =   160.2570

     10  N    Isotropic =   200.1061   Anisotropy =    72.9428

     11  C    Isotropic =    82.1998   Anisotropy =   129.6857

     12  C    Isotropic =    69.6292   Anisotropy =   153.5742

     13  C    Isotropic =    69.6345   Anisotropy =   153.6218

     14  C    Isotropic =    82.1879   Anisotropy =   129.7632

     15  H    Isotropic =    28.6132   Anisotropy =    12.1294

     16  H    Isotropic =    28.5528   Anisotropy =    12.1497

     17  H    Isotropic =    25.0771   Anisotropy =     5.8701

     18  H    Isotropic =    24.4245   Anisotropy =     8.1719

     19  H    Isotropic =    24.4339   Anisotropy =     8.1301

     20  H    Isotropic =    25.0748   Anisotropy =     5.8994

     21  H    Isotropic =    28.6132   Anisotropy =    12.1294

     22  H    Isotropic =    28.5528   Anisotropy =    12.1497

     23  H    Isotropic =    25.0771   Anisotropy =     5.8701

     24  H    Isotropic =    24.4245   Anisotropy =     8.1719

     25  H    Isotropic =    24.4339   Anisotropy =     8.1301

     26  H    Isotropic =    25.0748   Anisotropy =     5.8994

  Exact polarizability:  70.583   1.434 341.801   0.000   0.000 186.959
 Approx polarizability:  90.217  -1.661 374.571   0.000  -0.000 237.433

                      1                      2                      3
                      B                      A                      A
 Frequencies --     59.1008                68.9278                93.7417
 Red. masses --      5.0289                 3.4985                 4.5701
 Frc consts  --      0.0103                 0.0098                 0.0237
 IR Inten    --      4.6232                 1.5826                 1.6161

                      4                      5                      6
                      A                      B                      A
 Frequencies --    165.2952               247.0942               271.5050
 Red. masses --      4.7752                 4.5849                 6.5425
 Frc consts  --      0.0769                 0.1649                 0.2841
 IR Inten    --      0.0461                 7.7029                 0.1062

                      7                      8                      9
                      B                      A                      B
 Frequencies --    311.8172               312.6504               339.2072
 Red. masses --      1.0550                 1.0368                 3.8003
 Frc consts  --      0.0604                 0.0597                 0.2576
 IR Inten    --      6.7803                65.6071                 2.7831

                     10                     11                     12
                      A                      A                      B
 Frequencies --    378.2922               413.7389               418.8832
 Red. masses --      3.7354                 3.7385                 3.1344
 Frc consts  --      0.3150                 0.3771                 0.3240
 IR Inten    --      1.0342                 0.6146                 3.9717

                     13                     14                     15
                      A                      B                      B
 Frequencies --    424.1150               457.4778               521.1638
 Red. masses --      3.1769                 3.2852                 2.4854
 Frc consts  --      0.3367                 0.4051                 0.3977
 IR Inten    --      0.5077                22.3662               290.3368

                     16                     17                     18
                      B                      A                      B
 Frequencies --    534.2948               552.6384               611.7825
 Red. masses --      5.5953                 1.9924                 1.4679
 Frc consts  --      0.9411                 0.3585                 0.3237
 IR Inten    --     66.2802                13.0179              1132.1666

                     19                     20                     21
                      A                      B                      A
 Frequencies --    614.2819               650.2717               660.7525
 Red. masses --      1.6366                 6.7182                 6.7490
 Frc consts  --      0.3639                 1.6738                 1.7361
 IR Inten    --     12.3131                 1.8813                 0.4754

                     22                     23                     24
                      A                      B                      A
 Frequencies --    688.9021               724.0306               744.7409
 Red. masses --      3.6217                 4.1139                 4.5014
 Frc consts  --      1.0127                 1.2706                 1.4710
 IR Inten    --      0.9118                24.5917                 3.3116

                     25                     26                     27
                      B                      A                      B
 Frequencies --    826.5551               830.5961               830.7082
 Red. masses --      2.0737                 1.2750                 1.2732
 Frc consts  --      0.8347                 0.5183                 0.5177
 IR Inten    --     85.8071                 0.2560                 7.0224

                     28                     29                     30
                      B                      A                      A
 Frequencies --    838.2207               847.6764               856.2548
 Red. masses --      2.9417                 2.2699                 3.1056
 Frc consts  --      1.2178                 0.9610                 1.3415
 IR Inten    --     71.9180                 8.0270                 7.3090

                     31                     32                     33
                      B                      B                      A
 Frequencies --    948.8299               957.7708               959.8449
 Red. masses --      1.2530                 1.3183                 1.3031
 Frc consts  --      0.6646                 0.7125                 0.7073
 IR Inten    --      0.2964                 1.0730                 0.8015

                     34                     35                     36
                      A                      B                      A
 Frequencies --    961.4305              1010.7698              1028.2266
 Red. masses --      1.3121                 5.4607                 2.7568
 Frc consts  --      0.7146                 3.2870                 1.7172
 IR Inten    --      0.0131                 3.4119                 0.0187

                     37                     38                     39
                      B                      A                      B
 Frequencies --   1053.1623              1093.3118              1096.1771
 Red. masses --      2.3834                 1.5321                 1.4216
 Frc consts  --      1.5576                 1.0790                 1.0064
 IR Inten    --      0.1551                 2.1155                 0.2394

                     40                     41                     42
                      B                      A                      B
 Frequencies --   1157.3647              1160.1198              1205.1653
 Red. masses --      1.1874                 1.2168                 1.1155
 Frc consts  --      0.9371                 0.9649                 0.9546
 IR Inten    --      2.6990                28.4241                69.8363

                     43                     44                     45
                      A                      A                      B
 Frequencies --   1215.0654              1303.5278              1312.1597
 Red. masses --      1.1175                 2.2485                 3.0877
 Frc consts  --      0.9721                 2.2511                 3.1322
 IR Inten    --      0.0023                38.6502               333.1912

                     46                     47                     48
                      A                      A                      B
 Frequencies --   1313.8077              1320.1695              1345.4129
 Red. masses --      2.7125                 4.5014                 2.3259
 Frc consts  --      2.7585                 4.6223                 2.4806
 IR Inten    --      0.0150                 0.0315                 1.8766

                     49                     50                     51
                      B                      A                      A
 Frequencies --   1360.0965              1373.9509              1459.4931
 Red. masses --      2.0948                 1.9481                 2.8723
 Frc consts  --      2.2832                 2.1667                 3.6049
 IR Inten    --      1.0180                 8.1078                 0.0287

                     52                     53                     54
                      B                      B                      A
 Frequencies --   1486.5018              1543.6278              1570.5095
 Red. masses --      3.0626                 2.4094                 2.8497
 Frc consts  --      3.9872                 3.3826                 4.1412
 IR Inten    --      0.0547               442.2448                 0.0000

                     55                     56                     57
                      A                      B                      A
 Frequencies --   1609.1090              1624.9512              1654.1860
 Red. masses --      5.4590                 6.4172                 1.4761
 Frc consts  --      8.3279                 9.9834                 2.3798
 IR Inten    --      3.0906                 0.6122                 1.5347

                     58                     59                     60
                      B                      A                      B
 Frequencies --   1655.3361              1667.2328              1673.1479
 Red. masses --      1.2719                 2.6893                 3.8088
 Frc consts  --      2.0534                 4.4043                 6.2821
 IR Inten    --     51.7564                 0.9046               448.9137

                     61                     62                     63
                      B                      B                      A
 Frequencies --   3172.4877              3172.8449              3174.3725
 Red. masses --      1.0870                 1.0873                 1.0874
 Frc consts  --      6.4458                 6.4493                 6.4560
 IR Inten    --    113.9014                 1.5733                 0.6460

                     64                     65                     66
                      A                      B                      B
 Frequencies --   3174.5692              3189.2800              3192.0682
 Red. masses --      1.0881                 1.0943                 1.0943
 Frc consts  --      6.4606                 6.5578                 6.5694
 IR Inten    --     15.0595                11.0843                 1.4430

                     67                     68                     69
                      A                      A                      B
 Frequencies --   3193.5612              3196.8999              3558.9651
 Red. masses --      1.0924                 1.0935                 1.0485
 Frc consts  --      6.5641                 6.5849                 7.8243
 IR Inten    --     90.4665                 0.0094                79.6945

                     70                     71                     72
                      A                      A                      B
 Frequencies --   3559.0910              3660.9479              3660.9493
 Red. masses --      1.0485                 1.0982                 1.0982
 Frc consts  --      7.8254                 8.6718                 8.6719
 IR Inten    --      1.1191                40.9821                 3.4956

 - Thermochemistry -
 -------------------
 Temperature   298.150 Kelvin.  Pressure   1.00000 Atm.
 Atom     1 has atomic number  7 and mass  14.00307

 Molecular mass:   184.10005 amu.
 Principal axes and moments of inertia in atomic units:
                           1         2         3
     Eigenvalues --   640.012106092.938366620.97951
           X           -0.00125   0.00000   1.00000
           Y            1.00000   0.00000   0.00125
           Z            0.00000   1.00000   0.00000
 This molecule is an asymmetric top.
 Rotational symmetry number  2.
 Warning -- assumption of classical behavior for rotation
           may cause significant error
 Rotational temperatures (Kelvin)      0.13533     0.01422     0.01308
 Rotational constants (GHZ):           2.81985     0.29620     0.27258
 Zero-point vibrational energy     564166.1 (Joules/Mol)
                                  134.83894 (Kcal/Mol)
 Warning -- explicit consideration of  19 degrees of freedom as
           vibrations may cause significant error
 Vibrational temperatures:     85.03    99.17   134.87   237.82   355.51
          (Kelvin)            390.64   448.64   449.83   488.04   544.28
                              595.28   602.68   610.21   658.21   749.84
                              768.73   795.12   880.22   883.81   935.60
                              950.68   991.18  1041.72  1071.52  1189.23
                             1195.04  1195.20  1206.01  1219.62  1231.96
                             1365.15  1378.02  1381.00  1383.28  1454.27
                             1479.39  1515.27  1573.03  1577.15  1665.19
                             1669.15  1733.96  1748.21  1875.49  1887.91
                             1890.28  1899.43  1935.75  1956.88  1976.81
                             2099.89  2138.74  2220.94  2259.61  2315.15
                             2337.94  2380.00  2381.66  2398.78  2407.29
                             4564.50  4565.02  4567.21  4567.50  4588.66
                             4592.67  4594.82  4599.63  5120.56  5120.74
                             5267.29  5267.29

 Zero-point correction=                           0.214880 (Hartree/Particle)
 Thermal correction to Energy=                    0.226672
 Thermal correction to Enthalpy=                  0.227616
 Thermal correction to Gibbs Free Energy=         0.177838
 Sum of electronic and zero-point Energies=           -573.836282
 Sum of electronic and thermal Energies=              -573.824490
 Sum of electronic and thermal Enthalpies=            -573.823546
 Sum of electronic and thermal Free Energies=         -573.873323

                     E (Thermal)             CV                S
                      KCal/Mol        Cal/Mol-Kelvin    Cal/Mol-Kelvin
 Total                  142.239             48.218            104.766
 Electronic               0.000              0.000              0.000
 Translational            0.889              2.981             41.537
 Rotational               0.889              2.981             30.246
 Vibrational            140.461             42.256             32.982
 Vibration     1          0.596              1.974              4.487
 Vibration     2          0.598              1.969              4.184
 Vibration     3          0.603              1.954              3.580
 Vibration     4          0.624              1.885              2.488
 Vibration     5          0.661              1.768              1.751
 Vibration     6          0.675              1.726              1.587
 Vibration     7          0.700              1.651              1.353
 Vibration     8          0.701              1.650              1.348
 Vibration     9          0.719              1.597              1.216
 Vibration    10          0.749              1.516              1.046
 Vibration    11          0.777              1.440              0.914
 Vibration    12          0.782              1.429              0.896
 Vibration    13          0.786              1.418              0.878
 Vibration    14          0.816              1.344              0.773
 Vibration    15          0.876              1.203              0.607
 Vibration    16          0.889              1.174              0.578
 Vibration    17          0.908              1.134              0.539
 Vibration    18          0.971              1.007              0.430
 Vibration    19          0.974              1.002              0.426

 Optimization completed.
    -- Stationary point found.
 Normal termination of Gaussian 16 at Thu Jul 11 18:03:04 2024.
 Gaussian 16:  EM64L-G16RevA.03 25-Dec-2016

 ----------------------------------------------------------------------
 # TD(NStates=10, Root=1) B3LYP/6-31G** SCRF=(Solvent=water) volume pop
 =NPA density=current Geom=AllCheck Guess=Read
 ----------------------------------------------------------------------

 Structure from the checkpoint file:  "HFACYLZERDEVSX-UHFFFAOYSA-N_conf_1_2.chk"
 ----------------------------------
 HFACYLZERDEVSX-UHFFFAOYSA-N_conf_1
 ----------------------------------
 Charge =  0 Multiplicity = 1

                         Standard orientation:
 ---------------------------------------------------------------------
 Center     Atomic      Atomic             Coordinates (Angstroms)
 Number     Number       Type             X           Y           Z
 ---------------------------------------------------------------------
      1          7           0       -0.062218    4.990087   -0.019548
      2          6           0        0.000519    3.595708   -0.001057
      3          6           0        0.349865    2.869906   -1.154266
      4          6           0        0.349558    1.478543   -1.147217
      5          6           0       -0.000519    0.741497   -0.000880
      6          6           0        0.000519   -0.741497   -0.000880
      7          6           0        0.348913   -1.478875    1.145760
      8          6           0        0.347645   -2.870151    1.152733
      9          6           0       -0.000519   -3.595708   -0.001057
     10          7           0        0.062218   -4.990087   -0.019548
     11          6           0       -0.349865   -2.869906   -1.154266
     12          6           0       -0.349558   -1.478543   -1.147217
     13          6           0       -0.348913    1.478875    1.145760
     14          6           0       -0.347645    2.870151    1.152733
     15          1           0        0.524416    5.430331   -0.717106
     16          1           0        0.055752    5.430856    0.884006
     17          1           0        0.634401    3.404979   -2.056879
     18          1           0        0.653951    0.953481   -2.048165
     19          1           0        0.646893   -0.954301    2.049125
     20          1           0        0.630704   -3.405826    2.055411
     21          1           0       -0.524416   -5.430331   -0.717106
     22          1           0       -0.055752   -5.430856    0.884006
     23          1           0       -0.634401   -3.404979   -2.056879
     24          1           0       -0.653951   -0.953481   -2.048165
     25          1           0       -0.646893    0.954301    2.049125
     26          1           0       -0.630704    3.405826    2.055411
 ---------------------------------------------------------------------

 SCF Done:  E(RB3LYP) =  -574.051161647     A.U. after    1 cycles

 Excitation energies and oscillator strengths:

 Excited State   1:      Singlet-B      4.2022 eV  295.05 nm  f=1.1723  <S**2>=0.000
      49 -> 50         0.70524
 This state for optimization and/or second-order correction.
 Total Energy, E(TD-HF/TD-DFT) =  -573.896733881
 Copying the excited state density for this state as the 1-particle RhoCI density.

 Excited State   2:      Singlet-B      4.2307 eV  293.06 nm  f=0.0089  <S**2>=0.000
      47 -> 50        -0.13534
      49 -> 51         0.68979

 Excited State   3:      Singlet-A      4.4232 eV  280.30 nm  f=0.0995  <S**2>=0.000
      46 -> 50         0.16068
      49 -> 52         0.68284

 Excited State   4:      Singlet-A      5.2322 eV  236.96 nm  f=0.0000  <S**2>=0.000
      48 -> 50         0.65647
      49 -> 53        -0.23672

 Excited State   5:      Singlet-A      5.2419 eV  236.53 nm  f=0.0167  <S**2>=0.000
      46 -> 50        -0.16477
      48 -> 51         0.67482

 Excited State   6:      Singlet-B      5.3859 eV  230.20 nm  f=0.0007  <S**2>=0.000
      47 -> 50         0.22654
      48 -> 52         0.65918

 Excited State   7:      Singlet-A      5.7976 eV  213.85 nm  f=0.0001  <S**2>=0.000
      46 -> 51         0.20788
      47 -> 52        -0.13860
      48 -> 50         0.19421
      49 -> 53         0.62692

 Excited State   8:      Singlet-B      5.9267 eV  209.20 nm  f=0.0325  <S**2>=0.000
      47 -> 50         0.64646
      48 -> 52        -0.23290
      49 -> 51         0.11080

 Excited State   9:      Singlet-A      5.9691 eV  207.71 nm  f=0.3486  <S**2>=0.000
      45 -> 52        -0.10139
      46 -> 50         0.65731
      48 -> 51         0.17493
      49 -> 52        -0.13742

 Excited State  10:      Singlet-B      6.1000 eV  203.25 nm  f=0.1193  <S**2>=0.000
      46 -> 52         0.32518
      47 -> 51         0.62662

 The electronic state is 1-A.
 Alpha  occ. eigenvalues --  -14.33657 -14.33657 -10.22646 -10.22646 -10.18763
 Alpha  occ. eigenvalues --  -10.18735 -10.18590 -10.18590 -10.18582 -10.18580
 Alpha  occ. eigenvalues --  -10.18183 -10.18183 -10.18180 -10.18180  -0.91399
 Alpha  occ. eigenvalues --   -0.91350  -0.84961  -0.82291  -0.75032  -0.74427
 Alpha  occ. eigenvalues --   -0.73725  -0.69602  -0.62004  -0.61050  -0.59699
 Alpha  occ. eigenvalues --   -0.57198  -0.52484  -0.50793  -0.50724  -0.49365
 Alpha  occ. eigenvalues --   -0.48329  -0.43605  -0.43238  -0.43191  -0.41658
 Alpha  occ. eigenvalues --   -0.41343  -0.40820  -0.39437  -0.37921  -0.37638
 Alpha  occ. eigenvalues --   -0.34414  -0.34328  -0.32974  -0.32102  -0.29454
 Alpha  occ. eigenvalues --   -0.24969  -0.24832  -0.22174  -0.18279
 Alpha virt. eigenvalues --   -0.00995  -0.00320   0.00333   0.04715   0.09293
 Alpha virt. eigenvalues --    0.09731   0.10908   0.12046   0.12337   0.13641
 Alpha virt. eigenvalues --    0.15576   0.16180   0.17183   0.18499   0.18624

 Mulliken charges:
               1
     1  N   -0.640535
     2  C    0.231340
     3  C   -0.126481
     4  C   -0.154085
     5  C    0.041254
     6  C    0.041254
     7  C   -0.155116
     8  C   -0.125830
     9  C    0.231340
    10  N   -0.640535
    11  C   -0.126481
    12  C   -0.154085
    13  C   -0.155116
    14  C   -0.125830
    15  H    0.284671
    16  H    0.285490
    17  H    0.093581
    18  H    0.086028
    19  H    0.085733
    20  H    0.093949
    21  H    0.284671
    22  H    0.285490
    23  H    0.093581
    24  H    0.086028
    25  H    0.085733
    26  H    0.093949
 Sum of Mulliken charges =  -0.00000

 Dipole moment (field-independent basis, Debye):
    X=             -0.0000    Y=             -0.0000    Z=              0.7066  Tot=              0.7066
 Quadrupole moment (field-independent basis, Debye-Ang):
   XX=            -87.0571   YY=            -35.3472   ZZ=            -72.7926
   XY=             13.2583   XZ=              0.0000   YZ=              0.0000

 Summary of Natural Population Analysis:

                                       Natural Population
                Natural  -----------------------------------------------
    Atom  No    Charge         Core      Valence    Rydberg      Total
 -----------------------------------------------------------------------
      N    1   -0.79924      1.99951     5.78690    0.01283     7.79924
      C    2    0.12005      1.99897     3.86217    0.01880     5.87995
      C    3   -0.26825      1.99906     4.25558    0.01361     6.26825
      C    4   -0.24375      1.99908     4.23028    0.01439     6.24375
      C    5   -0.09208      1.99902     4.07603    0.01704     6.09208
      C    6   -0.09208      1.99902     4.07603    0.01704     6.09208
      C    7   -0.24555      1.99908     4.23203    0.01444     6.24555
      C    8   -0.26720      1.99906     4.25458    0.01357     6.26720
      C    9    0.12005      1.99897     3.86217    0.01880     5.87995
      N   10   -0.79924      1.99951     5.78690    0.01283     7.79924
      C   11   -0.26825      1.99906     4.25558    0.01361     6.26825
      C   12   -0.24375      1.99908     4.23028    0.01439     6.24375
      C   13   -0.24555      1.99908     4.23203    0.01444     6.24555
      C   14   -0.26720      1.99906     4.25458    0.01357     6.26720
      H   15    0.41637      0.00000     0.58053    0.00310     0.58363
      H   16    0.41713      0.00000     0.57994    0.00293     0.58287
      H   17    0.24214      0.00000     0.75623    0.00163     0.75786
      H   18    0.23899      0.00000     0.75922    0.00179     0.76101
      H   19    0.23889      0.00000     0.75932    0.00179     0.76111
      H   20    0.24250      0.00000     0.75591    0.00159     0.75750
      H   21    0.41637      0.00000     0.58053    0.00310     0.58363
      H   22    0.41713      0.00000     0.57994    0.00293     0.58287
      H   23    0.24214      0.00000     0.75623    0.00163     0.75786
      H   24    0.23899      0.00000     0.75922    0.00179     0.76101
      H   25    0.23889      0.00000     0.75932    0.00179     0.76111
      H   26    0.24250      0.00000     0.75591    0.00159     0.75750
 =======================================================================
   * Total *    0.00000     27.98753    69.77743    0.23504    98.00000

 Normal termination of Gaussian 16 at Thu Jul 11 18:19:05 2024.
