 Gaussian 16, Revision A.03,

 -------------------------------------------------------
 # opt=CalcFc B3LYP/6-31G** SCRF=(Solvent=water) scf=xqc
 -------------------------------------------------------

 ----------------------------------
 MERLDGDYUMSLAY-UHFFFAOYSA-N_conf_4
 ----------------------------------
 Symbolic Z-matrix:
 Charge =  0 Multiplicity = 1

 SCF Done:  E(RB3LYP) =  -1370.42416411     A.U. after   12 cycles
 SCF Done:  E(RB3LYP) =  -1370.43047679     A.U. after   11 cycles
 SCF Done:  E(RB3LYP) =  -1370.43096681     A.U. after   12 cycles
 SCF Done:  E(RB3LYP) =  -1370.43102192     A.U. after   10 cycles
 SCF Done:  E(RB3LYP) =  -1370.43103835     A.U. after    9 cycles
 SCF Done:  E(RB3LYP) =  -1370.43103943     A.U. after    8 cycles
 SCF Done:  E(RB3LYP) =  -1370.43103942     A.U. after    7 cycles
 Optimization completed.
    -- Stationary point found.
 Normal termination of Gaussian 16 at Thu Jul 18 14:18:18 2024.

 ----------------------------------------------------------------------
 # freq B3LYP/6-31G** SCRF=(Solvent=water) volume NMR pop=NPA density=c
 urrent Geom=AllCheck Guess=Read
 ----------------------------------------------------------------------

 Structure from the checkpoint file:  "MERLDGDYUMSLAY-UHFFFAOYSA-N_conf_4_1.chk"
 ----------------------------------
 MERLDGDYUMSLAY-UHFFFAOYSA-N_conf_4
 ----------------------------------
 Charge =  0 Multiplicity = 1

 SCF Done:  E(RB3LYP) =  -1370.43103942     A.U. after    1 cycles

      1  N    Isotropic =   194.0986   Anisotropy =    70.3405

      2  C    Isotropic =    47.4517   Anisotropy =   168.2898

      3  C    Isotropic =    83.1562   Anisotropy =   127.5002

      4  C    Isotropic =    58.6959   Anisotropy =   150.8212

      5  C    Isotropic =    68.2324   Anisotropy =   132.1113

      6  S    Isotropic =   297.0338   Anisotropy =   323.3633

      7  S    Isotropic =   297.0338   Anisotropy =   323.3633

      8  C    Isotropic =    68.2324   Anisotropy =   132.1113

      9  C    Isotropic =    58.6959   Anisotropy =   150.8212

     10  C    Isotropic =    83.1562   Anisotropy =   127.5002

     11  C    Isotropic =    47.4517   Anisotropy =   168.2898

     12  N    Isotropic =   194.0986   Anisotropy =    70.3405

     13  C    Isotropic =    82.2668   Anisotropy =   128.3142

     14  C    Isotropic =    59.0370   Anisotropy =   148.6598

     15  C    Isotropic =    59.0370   Anisotropy =   148.6598

     16  C    Isotropic =    82.2668   Anisotropy =   128.3142

     17  H    Isotropic =    28.1578   Anisotropy =    12.3757

     18  H    Isotropic =    28.1738   Anisotropy =    11.9944

     19  H    Isotropic =    25.2201   Anisotropy =     6.1051

     20  H    Isotropic =    24.6864   Anisotropy =     7.1568

     21  H    Isotropic =    24.6864   Anisotropy =     7.1568

     22  H    Isotropic =    25.2201   Anisotropy =     6.1051

     23  H    Isotropic =    28.1738   Anisotropy =    11.9944

     24  H    Isotropic =    28.1578   Anisotropy =    12.3757

     25  H    Isotropic =    25.0650   Anisotropy =     5.5023

     26  H    Isotropic =    24.2065   Anisotropy =     7.5895

     27  H    Isotropic =    24.2065   Anisotropy =     7.5895

     28  H    Isotropic =    25.0650   Anisotropy =     5.5023

  Exact polarizability: 369.157   0.000 286.901 -37.980   0.000 141.732
 Approx polarizability: 392.813   0.000 350.735 -47.993   0.000 182.919

                      1                      2                      3
                      A                      A                      A
 Frequencies --     16.6812                33.3636                35.5252
 Red. masses --      5.8618                 3.7350                 3.7507
 Frc consts  --      0.0010                 0.0024                 0.0028
 IR Inten    --      0.8447                 2.1985                 0.9174

                      4                      5                      6
                      A                      A                      A
 Frequencies --     69.9904                73.3012               139.0344
 Red. masses --      6.8972                 7.0305                 5.2953
 Frc consts  --      0.0199                 0.0223                 0.0603
 IR Inten    --      2.1922                 0.5160                13.4662

                      7                      8                      9
                      A                      A                      A
 Frequencies --    180.9086               252.1561               269.5961
 Red. masses --      6.1074                 6.2847                 6.3376
 Frc consts  --      0.1178                 0.2354                 0.2714
 IR Inten    --      8.2487                 0.6939                 0.5081

                     10                     11                     12
                      A                      A                      A
 Frequencies --    300.0424               341.4478               370.6247
 Red. masses --      6.8593                 7.2614                 1.0476
 Frc consts  --      0.3638                 0.4988                 0.0848
 IR Inten    --      5.1087                11.3961                33.8011

                     13                     14                     15
                      A                      A                      A
 Frequencies --    370.8663               383.9053               390.0396
 Red. masses --      1.0470                11.6362                 9.9442
 Frc consts  --      0.0848                 1.0104                 0.8913
 IR Inten    --     25.9339                36.0352                56.4551

                     16                     17                     18
                      A                      A                      A
 Frequencies --    407.5169               407.9651               415.3658
 Red. masses --      2.9211                 3.6716                 5.2761
 Frc consts  --      0.2858                 0.3600                 0.5363
 IR Inten    --      0.1953                28.4636                43.4985

                     19                     20                     21
                      A                      A                      A
 Frequencies --    423.6749               424.8432               480.6525
 Red. masses --      3.1540                 3.2840                 1.3674
 Frc consts  --      0.3336                 0.3492                 0.1861
 IR Inten    --      1.4823                 3.4497               630.6713

                     22                     23                     24
                      A                      A                      A
 Frequencies --    488.8967               540.6935               540.8352
 Red. masses --      1.4724                 2.3429                 2.3010
 Frc consts  --      0.2073                 0.4036                 0.3966
 IR Inten    --    521.2137                88.4014               102.5220

                     25                     26                     27
                      A                      A                      A
 Frequencies --    648.2078               648.3291               650.8380
 Red. masses --      6.9671                 6.9253                 6.1621
 Frc consts  --      1.7248                 1.7151                 1.5379
 IR Inten    --      0.2203                 0.7140                 3.7702

                     28                     29                     30
                      A                      A                      A
 Frequencies --    652.7402               719.8669               720.2334
 Red. masses --      6.0706                 3.9397                 3.9621
 Frc consts  --      1.5239                 1.2029                 1.2109
 IR Inten    --      3.0981                12.4973                12.4393

                     31                     32                     33
                      A                      A                      A
 Frequencies --    825.4670               826.1182               833.1413
 Red. masses --      1.2590                 1.2561                 1.9553
 Frc consts  --      0.5054                 0.5051                 0.7997
 IR Inten    --      2.7787                 0.5199                 9.9692

                     34                     35                     36
                      A                      A                      A
 Frequencies --    833.3219               843.7936               843.8686
 Red. masses --      1.9358                 3.8097                 3.7459
 Frc consts  --      0.7920                 1.5981                 1.5716
 IR Inten    --     89.9889                32.8642                 0.2073

                     37                     38                     39
                      A                      A                      A
 Frequencies --    956.1523               956.2962               964.4800
 Red. masses --      1.2734                 1.2701                 1.3218
 Frc consts  --      0.6859                 0.6844                 0.7244
 IR Inten    --      0.1963                 0.3535                 0.0436

                     40                     41                     42
                      A                      A                      A
 Frequencies --    964.5881              1018.8978              1019.0613
 Red. masses --      1.3222                 3.6060                 3.5414
 Frc consts  --      0.7248                 2.2056                 2.1669
 IR Inten    --      0.0004                 0.3370                 0.9164

                     43                     44                     45
                      A                      A                      A
 Frequencies --   1079.1226              1079.3652              1098.7603
 Red. masses --      1.4720                 1.4696                 3.1514
 Frc consts  --      1.0100                 1.0088                 2.2416
 IR Inten    --      1.0912                 1.1409                34.7990

                     46                     47                     48
                      A                      A                      A
 Frequencies --   1103.1170              1153.6911              1153.7465
 Red. masses --      3.1696                 1.1922                 1.1921
 Frc consts  --      2.2725                 0.9349                 0.9349
 IR Inten    --     95.8797                12.3547                11.8742

                     49                     50                     51
                      A                      A                      A
 Frequencies --   1204.2364              1205.7322              1320.3828
 Red. masses --      1.1402                 1.1357                 1.7911
 Frc consts  --      0.9742                 0.9728                 1.8398
 IR Inten    --     87.3851                32.9676                 7.5341

                     52                     53                     54
                      A                      A                      A
 Frequencies --   1321.3890              1332.5313              1334.0399
 Red. masses --      1.8076                 3.0009                 2.9906
 Frc consts  --      1.8595                 3.1395                 3.1358
 IR Inten    --      3.5217               272.8449               161.3115

                     55                     56                     57
                      A                      A                      A
 Frequencies --   1364.2969              1364.9756              1469.5408
 Red. masses --      2.7466                 2.7734                 2.9696
 Frc consts  --      3.0121                 3.0445                 3.7784
 IR Inten    --      3.0968                 2.6197                 2.2014

                     58                     59                     60
                      A                      A                      A
 Frequencies --   1470.2717              1533.4976              1534.8738
 Red. masses --      2.9720                 2.4829                 2.4874
 Frc consts  --      3.7853                 3.4402                 3.4525
 IR Inten    --      0.7485                91.4763                99.5504

                     61                     62                     63
                      A                      A                      A
 Frequencies --   1605.0193              1605.3414              1640.9081
 Red. masses --      6.0071                 6.0295                 3.4869
 Frc consts  --      9.1175                 9.1551                 5.5318
 IR Inten    --      7.3368                 7.8034               298.9720

                     64                     65                     66
                      A                      A                      A
 Frequencies --   1642.2336              1661.5881              1662.2231
 Red. masses --      3.2074                 1.3184                 1.3675
 Frc consts  --      5.0965                 2.1446                 2.2261
 IR Inten    --    161.2279               466.1788               276.0687

                     67                     68                     69
                      A                      A                      A
 Frequencies --   3183.9523              3184.1019              3184.2321
 Red. masses --      1.0888                 1.0888                 1.0884
 Frc consts  --      6.5031                 6.5038                 6.5018
 IR Inten    --     13.5035                37.2237                30.4298

                     70                     71                     72
                      A                      A                      A
 Frequencies --   3184.2472              3203.6919              3203.8248
 Red. masses --      1.0883                 1.0941                 1.0941
 Frc consts  --      6.5017                 6.6162                 6.6169
 IR Inten    --      1.7351                36.6697                17.0945

                     73                     74                     75
                      A                      A                      A
 Frequencies --   3207.3023              3207.6771              3577.4869
 Red. masses --      1.0943                 1.0942                 1.0478
 Frc consts  --      6.6322                 6.6330                 7.9011
 IR Inten    --      4.4142                 5.6904               136.1069

                     76                     77                     78
                      A                      A                      A
 Frequencies --   3577.6057              3686.0515              3686.0515
 Red. masses --      1.0479                 1.1003                 1.1003
 Frc consts  --      7.9020                 8.8081                 8.8082
 IR Inten    --     56.9981                41.5778                31.4387

 - Thermochemistry -
 -------------------
 Temperature   298.150 Kelvin.  Pressure   1.00000 Atm.
 Atom     1 has atomic number  7 and mass  14.00307

 Molecular mass:   248.04419 amu.
 Principal axes and moments of inertia in atomic units:
                           1         2         3
     Eigenvalues --  2496.359147951.767029706.40958
           X            0.99999   0.00000  -0.00536
           Y           -0.00000   1.00000   0.00000
           Z            0.00536  -0.00000   0.99999
 This molecule is an asymmetric top.
 Rotational symmetry number  1.
 Warning -- assumption of classical behavior for rotation
           may cause significant error
 Rotational temperatures (Kelvin)      0.03470     0.01089     0.00892
 Rotational constants (GHZ):           0.72295     0.22696     0.18593
 Zero-point vibrational energy     570083.0 (Joules/Mol)
                                  136.25311 (Kcal/Mol)
 Warning -- explicit consideration of  24 degrees of freedom as
           vibrations may cause significant error
 Vibrational temperatures:     24.00    48.00    51.11   100.70   105.46
          (Kelvin)            200.04   260.29   362.80   387.89   431.69
                              491.27   533.25   533.59   552.35   561.18
                              586.33   586.97   597.62   609.57   611.25
                              691.55   703.41   777.94   778.14   932.63
                              932.80   936.41   939.15  1035.73  1036.26
                             1187.66  1188.60  1198.70  1198.96  1214.03
                             1214.14  1375.69  1375.90  1387.67  1387.83
                             1465.97  1466.20  1552.62  1552.97  1580.87
                             1587.14  1659.90  1659.98  1732.63  1734.78
                             1899.74  1901.18  1917.22  1919.39  1962.92
                             1963.90  2114.34  2115.39  2206.36  2208.34
                             2309.26  2309.73  2360.90  2362.81  2390.65
                             2391.57  4581.00  4581.21  4581.40  4581.42
                             4609.40  4609.59  4614.59  4615.13  5147.21
                             5147.38  5303.41  5303.41

 Zero-point correction=                           0.217133 (Hartree/Particle)
 Thermal correction to Energy=                    0.232506
 Thermal correction to Enthalpy=                  0.233450
 Thermal correction to Gibbs Free Energy=         0.172114
 Sum of electronic and zero-point Energies=          -1370.213906
 Sum of electronic and thermal Energies=             -1370.198533
 Sum of electronic and thermal Enthalpies=           -1370.197589
 Sum of electronic and thermal Free Energies=        -1370.258925

                     E (Thermal)             CV                S
                      KCal/Mol        Cal/Mol-Kelvin    Cal/Mol-Kelvin
 Total                  145.900             59.174            129.092
 Electronic               0.000              0.000              0.000
 Translational            0.889              2.981             42.426
 Rotational               0.889              2.981             33.621
 Vibrational            144.122             53.212             53.045
 Vibration     1          0.593              1.986              6.995
 Vibration     2          0.594              1.983              5.619
 Vibration     3          0.594              1.982              5.494
 Vibration     4          0.598              1.968              4.154
 Vibration     5          0.599              1.967              4.063
 Vibration     6          0.615              1.914              2.817
 Vibration     7          0.630              1.866              2.319
 Vibration     8          0.664              1.759              1.715
 Vibration     9          0.674              1.729              1.599
 Vibration    10          0.693              1.674              1.417
 Vibration    11          0.721              1.593              1.205
 Vibration    12          0.743              1.533              1.077
 Vibration    13          0.743              1.532              1.076
 Vibration    14          0.753              1.505              1.024
 Vibration    15          0.758              1.491              1.000
 Vibration    16          0.772              1.454              0.935
 Vibration    17          0.773              1.453              0.934
 Vibration    18          0.779              1.437              0.908
 Vibration    19          0.786              1.419              0.880
 Vibration    20          0.787              1.416              0.876
 Vibration    21          0.837              1.293              0.708
 Vibration    22          0.845              1.275              0.686
 Vibration    23          0.896              1.160              0.564
 Vibration    24          0.896              1.160              0.563

 Optimization completed.
    -- Stationary point found.
 Normal termination of Gaussian 16 at Thu Jul 18 14:32:50 2024.
 Gaussian 16:  ES64L-G16RevA.03 25-Dec-2016

 ----------------------------------------------------------------------
 # TD(NStates=10, Root=1) B3LYP/6-31G** SCRF=(Solvent=water) volume pop
 =NPA density=current Geom=AllCheck Guess=Read
 ----------------------------------------------------------------------

 Structure from the checkpoint file:  "MERLDGDYUMSLAY-UHFFFAOYSA-N_conf_4_2.chk"
 ----------------------------------
 MERLDGDYUMSLAY-UHFFFAOYSA-N_conf_4
 ----------------------------------
 Charge =  0 Multiplicity = 1

                         Standard orientation:
 ---------------------------------------------------------------------
 Center     Atomic      Atomic             Coordinates (Angstroms)
 Number     Number       Type             X           Y           Z
 ---------------------------------------------------------------------
      1          7           0       -4.722766    2.277447    0.331625
      2          6           0       -3.808846    1.282663    0.040615
      3          6           0       -2.642269    1.567999   -0.699531
      4          6           0       -1.698381    0.578589   -0.942040
      5          6           0       -1.883099   -0.728230   -0.458602
      6         16           0       -0.694129   -2.002500   -0.821596
      7         16           0        0.694129   -2.002500    0.821596
      8          6           0        1.883099   -0.728230    0.458602
      9          6           0        1.698381    0.578589    0.942040
     10          6           0        2.642270    1.567998    0.699531
     11          6           0        3.808846    1.282663   -0.040615
     12          7           0        4.722766    2.277446   -0.331625
     13          6           0        3.993126   -0.030623   -0.524125
     14          6           0        3.045600   -1.014607   -0.277649
     15          6           0       -3.045600   -1.014607    0.277649
     16          6           0       -3.993127   -0.030623    0.524124
     17          1           0       -5.657010    1.975882    0.572109
     18          1           0       -4.715645    3.087505   -0.272822
     19          1           0       -2.485564    2.572284   -1.083341
     20          1           0       -0.809484    0.816413   -1.517571
     21          1           0        0.809484    0.816413    1.517572
     22          1           0        2.485565    2.572284    1.083341
     23          1           0        4.715645    3.087505    0.272822
     24          1           0        5.657010    1.975882   -0.572109
     25          1           0        4.887556   -0.269497   -1.093000
     26          1           0        3.206525   -2.019466   -0.655746
     27          1           0       -3.206525   -2.019466    0.655746
     28          1           0       -4.887556   -0.269497    1.093000
 ---------------------------------------------------------------------

 SCF Done:  E(RB3LYP) =  -1370.43103942     A.U. after    1 cycles

 Excitation energies and oscillator strengths:

 Excited State   1:      Singlet-A      3.3702 eV  367.88 nm  f=0.6550  <S**2>=0.000
      65 -> 66         0.70251
 This state for optimization and/or second-order correction.
 Total Energy, E(TD-HF/TD-DFT) =  -1370.30718711
 Copying the excited state density for this state as the 1-particle RhoCI density.

 Excited State   2:      Singlet-A      3.8313 eV  323.61 nm  f=0.1963  <S**2>=0.000
      62 -> 66         0.17794
      64 -> 66         0.67908

 Excited State   3:      Singlet-A      3.8797 eV  319.58 nm  f=0.0310  <S**2>=0.000
      63 -> 66         0.70108

 Excited State   4:      Singlet-A      4.1904 eV  295.88 nm  f=0.0189  <S**2>=0.000
      62 -> 66         0.68091
      64 -> 66        -0.17596

 Excited State   5:      Singlet-A      4.5237 eV  274.08 nm  f=0.0227  <S**2>=0.000
      61 -> 66         0.39759
      64 -> 68        -0.15721
      65 -> 67         0.55199

 Excited State   6:      Singlet-A      4.6233 eV  268.17 nm  f=0.0159  <S**2>=0.000
      60 -> 66        -0.44131
      61 -> 69        -0.10219
      64 -> 67        -0.25840
      65 -> 68         0.47322

 Excited State   7:      Singlet-A      4.8570 eV  255.27 nm  f=0.0710  <S**2>=0.000
      61 -> 66         0.56718
      65 -> 67        -0.41031

 Excited State   8:      Singlet-A      4.9648 eV  249.73 nm  f=0.0633  <S**2>=0.000
      60 -> 66         0.51919
      65 -> 68         0.46752

 Excited State   9:      Singlet-A      5.0719 eV  244.45 nm  f=0.0323  <S**2>=0.000
      60 -> 66        -0.17862
      64 -> 67         0.64613
      65 -> 68         0.20294

 Excited State  10:      Singlet-A      5.2061 eV  238.15 nm  f=0.0142  <S**2>=0.000
      61 -> 66         0.13055
      64 -> 68         0.67071
      65 -> 67         0.11574

 The electronic state is 1-A.
 Alpha  occ. eigenvalues --  -88.89106 -88.89105 -14.34632 -14.34632 -10.24054
 Alpha  occ. eigenvalues --  -10.24054 -10.21245 -10.21244 -10.19967 -10.19967
 Alpha  occ. eigenvalues --  -10.19962 -10.19962 -10.19036 -10.19036 -10.19006
 Alpha  occ. eigenvalues --  -10.19006  -7.95138  -7.95137  -5.91687  -5.91680
 Alpha  occ. eigenvalues --   -5.91272  -5.91271  -5.90578  -5.90578  -0.92519
 Alpha  occ. eigenvalues --   -0.92514  -0.85436  -0.84761  -0.79079  -0.75179
 Alpha  occ. eigenvalues --   -0.75175  -0.75128  -0.70515  -0.65418  -0.61954
 Alpha  occ. eigenvalues --   -0.61876  -0.59451  -0.57615  -0.52656  -0.52241
 Alpha  occ. eigenvalues --   -0.51377  -0.51352  -0.47435  -0.45350  -0.43683
 Alpha  occ. eigenvalues --   -0.43584  -0.43506  -0.42445  -0.42361  -0.42226
 Alpha  occ. eigenvalues --   -0.39681  -0.39145  -0.38078  -0.35134  -0.35043
 Alpha  occ. eigenvalues --   -0.34586  -0.34568  -0.32144  -0.29912  -0.26018
 Alpha  occ. eigenvalues --   -0.25730  -0.25094  -0.24022  -0.21742  -0.20299
 Alpha virt. eigenvalues --   -0.05792  -0.01033  -0.00403   0.00524   0.02720
 Alpha virt. eigenvalues --    0.05276   0.05669   0.09379   0.09387   0.12278
 Alpha virt. eigenvalues --    0.12647   0.12686   0.12936   0.15392   0.15884

 Mulliken charges:
               1
     1  N   -0.625299
     2  C    0.269444
     3  C   -0.098400
     4  C   -0.102156
     5  C   -0.064198
     6  S   -0.241958
     7  S   -0.241958
     8  C   -0.064198
     9  C   -0.102156
    10  C   -0.098400
    11  C    0.269444
    12  N   -0.625299
    13  C   -0.098847
    14  C   -0.105788
    15  C   -0.105788
    16  C   -0.098847
    17  H    0.303605
    18  H    0.303218
    19  H    0.117510
    20  H    0.113480
    21  H    0.113480
    22  H    0.117510
    23  H    0.303218
    24  H    0.303605
    25  H    0.116330
    26  H    0.113059
    27  H    0.113059
    28  H    0.116330
 Sum of Mulliken charges =  -0.00000

 Dipole moment (field-independent basis, Debye):
    X=              0.0000    Y=             12.7109    Z=             -0.0000  Tot=             12.7109
 Quadrupole moment (field-independent basis, Debye-Ang):
   XX=            -27.6400   YY=           -101.4596   ZZ=           -114.7697
   XY=             -0.0000   XZ=             -5.0467   YZ=              0.0000

 Summary of Natural Population Analysis:

                                       Natural Population
                Natural  -----------------------------------------------
    Atom  No    Charge         Core      Valence    Rydberg      Total
 -----------------------------------------------------------------------
      N    1   -0.77149      1.99948     5.76096    0.01104     7.77149
      C    2    0.17863      1.99901     3.80470    0.01766     5.82137
      C    3   -0.25309      1.99904     4.24132    0.01273     6.25309
      C    4   -0.23493      1.99900     4.21951    0.01643     6.23493
      C    5   -0.18445      1.99881     4.16337    0.02227     6.18445
      S    6   -0.12365      9.99924     6.07167    0.05274    16.12365
      S    7   -0.12365      9.99924     6.07167    0.05274    16.12365
      C    8   -0.18445      1.99881     4.16337    0.02227     6.18445
      C    9   -0.23493      1.99900     4.21951    0.01643     6.23493
      C   10   -0.25309      1.99904     4.24132    0.01273     6.25309
      C   11    0.17863      1.99901     3.80470    0.01766     5.82137
      N   12   -0.77149      1.99948     5.76096    0.01104     7.77149
      C   13   -0.25756      1.99904     4.24579    0.01273     6.25756
      C   14   -0.23598      1.99899     4.22031    0.01667     6.23598
      C   15   -0.23598      1.99899     4.22031    0.01667     6.23598
      C   16   -0.25756      1.99904     4.24579    0.01273     6.25756
      H   17    0.43118      0.00000     0.56645    0.00237     0.56882
      H   18    0.43081      0.00000     0.56680    0.00239     0.56919
      H   19    0.25421      0.00000     0.74427    0.00152     0.74579
      H   20    0.25622      0.00000     0.74163    0.00214     0.74378
      H   21    0.25622      0.00000     0.74163    0.00214     0.74378
      H   22    0.25421      0.00000     0.74427    0.00152     0.74579
      H   23    0.43081      0.00000     0.56680    0.00239     0.56919
      H   24    0.43118      0.00000     0.56645    0.00237     0.56882
      H   25    0.25403      0.00000     0.74444    0.00153     0.74597
      H   26    0.25607      0.00000     0.74207    0.00187     0.74393
      H   27    0.25607      0.00000     0.74207    0.00187     0.74393
      H   28    0.25403      0.00000     0.74444    0.00153     0.74597
 =======================================================================
   * Total *   -0.00000     47.98522    81.66658    0.34820   130.00000

 Normal termination of Gaussian 16 at Thu Jul 18 14:47:03 2024.
