 Gaussian 16, Revision A.03,

 -------------------------------------------------------
 # opt=CalcFc B3LYP/6-31G** SCRF=(Solvent=water) scf=xqc
 -------------------------------------------------------

 ----------------------------------
 MERLDGDYUMSLAY-UHFFFAOYSA-N_conf_1
 ----------------------------------
 Symbolic Z-matrix:
 Charge =  0 Multiplicity = 1

 SCF Done:  E(RB3LYP) =  -1370.42422724     A.U. after   13 cycles
 SCF Done:  E(RB3LYP) =  -1370.43046240     A.U. after   11 cycles
 SCF Done:  E(RB3LYP) =  -1370.43098909     A.U. after   12 cycles
 SCF Done:  E(RB3LYP) =  -1370.43103464     A.U. after   10 cycles
 SCF Done:  E(RB3LYP) =  -1370.43104263     A.U. after    9 cycles
 SCF Done:  E(RB3LYP) =  -1370.43104311     A.U. after    8 cycles
 SCF Done:  E(RB3LYP) =  -1370.43104308     A.U. after    7 cycles
 Optimization completed.
    -- Stationary point found.
 Normal termination of Gaussian 16 at Thu Jul 18 13:38:24 2024.

 ----------------------------------------------------------------------
 # freq B3LYP/6-31G** SCRF=(Solvent=water) volume NMR pop=NPA density=c
 urrent Geom=AllCheck Guess=Read
 ----------------------------------------------------------------------

 Structure from the checkpoint file:  "MERLDGDYUMSLAY-UHFFFAOYSA-N_conf_1_1.chk"
 ----------------------------------
 MERLDGDYUMSLAY-UHFFFAOYSA-N_conf_1
 ----------------------------------
 Charge =  0 Multiplicity = 1

 SCF Done:  E(RB3LYP) =  -1370.43104308     A.U. after    1 cycles

      1  N    Isotropic =   194.1040   Anisotropy =    70.3330

      2  C    Isotropic =    47.4636   Anisotropy =   168.2636

      3  C    Isotropic =    82.2927   Anisotropy =   128.2660

      4  C    Isotropic =    59.0440   Anisotropy =   148.5887

      5  C    Isotropic =    68.2076   Anisotropy =   132.1085

      6  S    Isotropic =   296.9431   Anisotropy =   323.7940

      7  S    Isotropic =   297.3396   Anisotropy =   323.4134

      8  C    Isotropic =    68.2041   Anisotropy =   132.3394

      9  C    Isotropic =    58.6401   Anisotropy =   150.7918

     10  C    Isotropic =    83.1517   Anisotropy =   127.4795

     11  C    Isotropic =    47.3941   Anisotropy =   168.2876

     12  N    Isotropic =   194.1848   Anisotropy =    70.4848

     13  C    Isotropic =    82.2479   Anisotropy =   128.2418

     14  C    Isotropic =    59.0041   Anisotropy =   148.6494

     15  C    Isotropic =    58.7402   Anisotropy =   150.7632

     16  C    Isotropic =    83.1573   Anisotropy =   127.4743

     17  H    Isotropic =    28.1817   Anisotropy =    11.9998

     18  H    Isotropic =    28.1628   Anisotropy =    12.3747

     19  H    Isotropic =    25.0713   Anisotropy =     5.5036

     20  H    Isotropic =    24.2137   Anisotropy =     7.5852

     21  H    Isotropic =    24.6770   Anisotropy =     7.0937

     22  H    Isotropic =    25.2133   Anisotropy =     6.0717

     23  H    Isotropic =    28.1562   Anisotropy =    12.1060

     24  H    Isotropic =    28.1521   Anisotropy =    11.8335

     25  H    Isotropic =    25.0659   Anisotropy =     5.4994

     26  H    Isotropic =    24.2069   Anisotropy =     7.5732

     27  H    Isotropic =    24.7162   Anisotropy =     7.1567

     28  H    Isotropic =    25.2346   Anisotropy =     6.1077

  Exact polarizability: 369.769   0.193 287.007  37.772  -0.110 141.615
 Approx polarizability: 395.691   0.703 349.723  45.974  -2.152 182.057

                      1                      2                      3
                      A                      A                      A
 Frequencies --     17.3434                34.1169                34.9982
 Red. masses --      5.7226                 3.7714                 3.7590
 Frc consts  --      0.0010                 0.0026                 0.0027
 IR Inten    --      1.1803                 0.7223                 0.6433

                      4                      5                      6
                      A                      A                      A
 Frequencies --     69.5393                73.3534               138.6021
 Red. masses --      6.7392                 6.9643                 5.5526
 Frc consts  --      0.0192                 0.0221                 0.0628
 IR Inten    --      4.0021                 1.0636                 8.2160

                      7                      8                      9
                      A                      A                      A
 Frequencies --    180.4155               252.3535               269.8507
 Red. masses --      6.3575                 6.2934                 6.3840
 Frc consts  --      0.1219                 0.2361                 0.2739
 IR Inten    --      5.1607                 0.4531                 0.2330

                     10                     11                     12
                      A                      A                      A
 Frequencies --    299.5493               341.9741               369.5091
 Red. masses --      6.1275                 7.0161                 1.0483
 Frc consts  --      0.3239                 0.4834                 0.0843
 IR Inten    --     17.3029                 5.6540                30.3120

                     13                     14                     15
                      A                      A                      A
 Frequencies --    373.7029               383.2221               388.2406
 Red. masses --      1.0724                 7.9125                 9.1867
 Frc consts  --      0.0882                 0.6846                 0.8158
 IR Inten    --     27.6151                63.5391                95.6814

                     16                     17                     18
                      A                      A                      A
 Frequencies --    407.8255               409.9657               416.1776
 Red. masses --      3.0561                 3.5245                 5.9986
 Frc consts  --      0.2995                 0.3490                 0.6121
 IR Inten    --      5.1637                11.1919                27.9310

                     19                     20                     21
                      A                      A                      A
 Frequencies --    423.5952               424.8465               483.8913
 Red. masses --      3.1445                 3.3301                 1.4137
 Frc consts  --      0.3324                 0.3541                 0.1950
 IR Inten    --      3.1090                 2.0551               528.5033

                     22                     23                     24
                      A                      A                      A
 Frequencies --    493.2423               533.8229               540.6777
 Red. masses --      1.3844                 2.5145                 2.3222
 Frc consts  --      0.1984                 0.4222                 0.4000
 IR Inten    --    689.8584               139.8185                91.7497

                     25                     26                     27
                      A                      A                      A
 Frequencies --    648.2110               648.4312               651.0710
 Red. masses --      6.9619                 6.9572                 6.1092
 Frc consts  --      1.7235                 1.7235                 1.5258
 IR Inten    --      0.2609                 0.4640                 4.7871

                     28                     29                     30
                      A                      A                      A
 Frequencies --    653.2419               719.9997               721.1175
 Red. masses --      6.0009                 3.9442                 3.9627
 Frc consts  --      1.5087                 1.2047                 1.2141
 IR Inten    --      5.0137                12.2560                 3.1965

                     31                     32                     33
                      A                      A                      A
 Frequencies --    825.5015               826.3322               833.1389
 Red. masses --      1.2568                 1.2535                 1.9436
 Frc consts  --      0.5046                 0.5043                 0.7948
 IR Inten    --      1.8443                 0.0886                49.6147

                     34                     35                     36
                      A                      A                      A
 Frequencies --    833.5637               843.4685               843.7966
 Red. masses --      1.8781                 4.0584                 3.8025
 Frc consts  --      0.7689                 1.7012                 1.5951
 IR Inten    --     60.5884                18.9457                17.0474

                     37                     38                     39
                      A                      A                      A
 Frequencies --    956.1822               956.8042               964.3768
 Red. masses --      1.2721                 1.2685                 1.3230
 Frc consts  --      0.6852                 0.6842                 0.7249
 IR Inten    --      0.2542                 0.0719                 0.0309

                     40                     41                     42
                      A                      A                      A
 Frequencies --    964.5151              1018.9225              1019.5027
 Red. masses --      1.3238                 3.5823                 3.5803
 Frc consts  --      0.7256                 2.1912                 2.1925
 IR Inten    --      0.0153                 0.8213                 0.5053

                     43                     44                     45
                      A                      A                      A
 Frequencies --   1079.2563              1080.4465              1098.8288
 Red. masses --      1.4711                 1.4704                 3.1459
 Frc consts  --      1.0096                 1.0113                 2.2380
 IR Inten    --      1.1434                 0.9242                37.0858

                     46                     47                     48
                      A                      A                      A
 Frequencies --   1103.1551              1153.6979              1154.1398
 Red. masses --      3.1634                 1.1921                 1.1935
 Frc consts  --      2.2682                 0.9349                 0.9367
 IR Inten    --     89.9289                12.2352                12.1653

                     49                     50                     51
                      A                      A                      A
 Frequencies --   1204.5422              1206.2856              1320.4987
 Red. masses --      1.1401                 1.1366                 1.7962
 Frc consts  --      0.9746                 0.9745                 1.8453
 IR Inten    --     80.8994                37.1511                 6.3670

                     52                     53                     54
                      A                      A                      A
 Frequencies --   1321.5471              1332.6802              1334.1973
 Red. masses --      1.8163                 3.0002                 2.9905
 Frc consts  --      1.8689                 3.1394                 3.1364
 IR Inten    --      4.5269               268.6722               162.8117

                     55                     56                     57
                      A                      A                      A
 Frequencies --   1364.4861              1365.4864              1469.7346
 Red. masses --      2.7478                 2.7414                 2.9649
 Frc consts  --      3.0142                 3.0116                 3.7735
 IR Inten    --      3.3227                 2.3869                 1.8187

                     58                     59                     60
                      A                      A                      A
 Frequencies --   1470.6702              1533.6824              1535.1325
 Red. masses --      2.9505                 2.4847                 2.4898
 Frc consts  --      3.7599                 3.4435                 3.4571
 IR Inten    --      0.9988                91.4988               100.0728

                     61                     62                     63
                      A                      A                      A
 Frequencies --   1605.0441              1605.3727              1641.0488
 Red. masses --      6.0065                 6.0282                 3.5218
 Frc consts  --      9.1168                 9.1535                 5.5881
 IR Inten    --      7.3395                 7.8316               318.5782

                     64                     65                     66
                      A                      A                      A
 Frequencies --   1642.4406              1661.7626              1663.0592
 Red. masses --      3.2891                 1.3318                 1.3312
 Frc consts  --      5.2277                 2.1669                 2.1693
 IR Inten    --    165.4828               380.0164               326.1385

                     67                     68                     69
                      A                      A                      A
 Frequencies --   3183.6453              3183.9666              3184.1323
 Red. masses --      1.0884                 1.0888                 1.0884
 Frc consts  --      6.4996                 6.5031                 6.5016
 IR Inten    --     22.0958                23.7486                15.0150

                     70                     71                     72
                      A                      A                      A
 Frequencies --   3184.9936              3203.6514              3203.8093
 Red. masses --      1.0887                 1.0941                 1.0941
 Frc consts  --      6.5066                 6.6159                 6.6167
 IR Inten    --     21.5057                34.6679                18.7466

                     73                     74                     75
                      A                      A                      A
 Frequencies --   3207.3144              3207.7164              3577.5432
 Red. masses --      1.0943                 1.0942                 1.0478
 Frc consts  --      6.6323                 6.6333                 7.9015
 IR Inten    --      4.4797                 5.8507                99.3649

                     76                     77                     78
                      A                      A                      A
 Frequencies --   3577.8703              3686.0582              3686.4264
 Red. masses --      1.0478                 1.1003                 1.1003
 Frc consts  --      7.9029                 8.8082                 8.8100
 IR Inten    --     83.3263                36.5087                35.7450

 - Thermochemistry -
 -------------------
 Temperature   298.150 Kelvin.  Pressure   1.00000 Atm.
 Atom     1 has atomic number  7 and mass  14.00307

 Molecular mass:   248.04419 amu.
 Principal axes and moments of inertia in atomic units:
                           1         2         3
     Eigenvalues --  2487.581057974.759369723.68867
           X            0.99997   0.00002   0.00731
           Y           -0.00005   0.99999   0.00447
           Z           -0.00731  -0.00447   0.99996
 This molecule is an asymmetric top.
 Rotational symmetry number  1.
 Warning -- assumption of classical behavior for rotation
           may cause significant error
 Rotational temperatures (Kelvin)      0.03482     0.01086     0.00891
 Rotational constants (GHZ):           0.72550     0.22631     0.18560
 Zero-point vibrational energy     570160.0 (Joules/Mol)
                                  136.27152 (Kcal/Mol)
 Warning -- explicit consideration of  24 degrees of freedom as
           vibrations may cause significant error
 Vibrational temperatures:     24.95    49.09    50.35   100.05   105.54
          (Kelvin)            199.42   259.58   363.08   388.26   430.98
                              492.02   531.64   537.68   551.37   558.59
                              586.77   589.85   598.79   609.46   611.26
                              696.21   709.67   768.05   777.91   932.63
                              932.95   936.75   939.87  1035.92  1037.53
                             1187.71  1188.91  1198.70  1199.31  1213.56
                             1214.04  1375.73  1376.63  1387.52  1387.72
                             1466.00  1466.84  1552.81  1554.52  1580.97
                             1587.19  1659.91  1660.55  1733.07  1735.58
                             1899.90  1901.41  1917.43  1919.61  1963.19
                             1964.63  2114.62  2115.97  2206.63  2208.71
                             2309.30  2309.77  2361.10  2363.11  2390.91
                             2392.77  4580.56  4581.02  4581.26  4582.50
                             4609.34  4609.57  4614.61  4615.19  5147.29
                             5147.76  5303.42  5303.95

 Zero-point correction=                           0.217162 (Hartree/Particle)
 Thermal correction to Energy=                    0.232531
 Thermal correction to Enthalpy=                  0.233475
 Thermal correction to Gibbs Free Energy=         0.172180
 Sum of electronic and zero-point Energies=          -1370.213881
 Sum of electronic and thermal Energies=             -1370.198512
 Sum of electronic and thermal Enthalpies=           -1370.197568
 Sum of electronic and thermal Free Energies=        -1370.258863

                     E (Thermal)             CV                S
                      KCal/Mol        Cal/Mol-Kelvin    Cal/Mol-Kelvin
 Total                  145.915             59.160            129.005
 Electronic               0.000              0.000              0.000
 Translational            0.889              2.981             42.426
 Rotational               0.889              2.981             33.622
 Vibrational            144.138             53.198             52.957
 Vibration     1          0.593              1.986              6.917
 Vibration     2          0.594              1.983              5.574
 Vibration     3          0.594              1.982              5.524
 Vibration     4          0.598              1.969              4.166
 Vibration     5          0.599              1.967              4.061
 Vibration     6          0.614              1.915              2.823
 Vibration     7          0.629              1.866              2.324
 Vibration     8          0.664              1.759              1.714
 Vibration     9          0.674              1.729              1.597
 Vibration    10          0.692              1.675              1.419
 Vibration    11          0.721              1.592              1.203
 Vibration    12          0.742              1.535              1.082
 Vibration    13          0.745              1.526              1.065
 Vibration    14          0.752              1.506              1.026
 Vibration    15          0.756              1.495              1.007
 Vibration    16          0.772              1.453              0.934
 Vibration    17          0.774              1.449              0.927
 Vibration    18          0.779              1.435              0.905
 Vibration    19          0.786              1.419              0.880
 Vibration    20          0.787              1.416              0.876
 Vibration    21          0.840              1.286              0.700
 Vibration    22          0.849              1.265              0.675
 Vibration    23          0.889              1.175              0.579
 Vibration    24          0.896              1.160              0.564

 Optimization completed.
    -- Stationary point found.
 Normal termination of Gaussian 16 at Thu Jul 18 13:53:22 2024.
 Gaussian 16:  ES64L-G16RevA.03 25-Dec-2016

 ----------------------------------------------------------------------
 # TD(NStates=10, Root=1) B3LYP/6-31G** SCRF=(Solvent=water) volume pop
 =NPA density=current Geom=AllCheck Guess=Read
 ----------------------------------------------------------------------

 Structure from the checkpoint file:  "MERLDGDYUMSLAY-UHFFFAOYSA-N_conf_1_2.chk"
 ----------------------------------
 MERLDGDYUMSLAY-UHFFFAOYSA-N_conf_1
 ----------------------------------
 Charge =  0 Multiplicity = 1

                         Standard orientation:
 ---------------------------------------------------------------------
 Center     Atomic      Atomic             Coordinates (Angstroms)
 Number     Number       Type             X           Y           Z
 ---------------------------------------------------------------------
      1          7           0       -4.730366    2.270277   -0.336062
      2          6           0       -3.813506    1.279039   -0.042287
      3          6           0       -3.998679   -0.038257   -0.514353
      4          6           0       -3.048348   -1.018951   -0.265543
      5          6           0       -1.882169   -0.725266    0.461936
      6         16           0       -0.689789   -1.995542    0.827787
      7         16           0        0.693332   -2.002197   -0.819896
      8          6           0        1.886125   -0.729495   -0.463958
      9          6           0        1.702139    0.577071   -0.948418
     10          6           0        2.646481    1.566280   -0.706598
     11          6           0        3.813371    1.280406    0.032901
     12          7           0        4.782827    2.245810    0.226544
     13          6           0        3.996118   -0.032179    0.518737
     14          6           0        3.048085   -1.015835    0.273154
     15          6           0       -1.696651    0.585527    0.934198
     16          6           0       -2.643182    1.571751    0.689066
     17          1           0       -4.721024    3.085140    0.261852
     18          1           0       -5.665510    1.965622   -0.569037
     19          1           0       -4.895922   -0.282880   -1.076309
     20          1           0       -3.209941   -2.026963   -0.634849
     21          1           0        0.810373    0.816431   -1.518858
     22          1           0        2.490150    2.570448   -1.091012
     23          1           0        5.420412    2.096033    0.996338
     24          1           0        4.483917    3.208016    0.146465
     25          1           0        4.890327   -0.270674    1.088089
     26          1           0        3.205248   -2.018834    0.657711
     27          1           0       -0.804913    0.829086    1.502905
     28          1           0       -2.485726    2.579252    1.064056
 ---------------------------------------------------------------------

 SCF Done:  E(RB3LYP) =  -1370.43104308     A.U. after    1 cycles

 Excitation energies and oscillator strengths:

 Excited State   1:      Singlet-A      3.3689 eV  368.03 nm  f=0.6608  <S**2>=0.000
      65 -> 66         0.70252
 This state for optimization and/or second-order correction.
 Total Energy, E(TD-HF/TD-DFT) =  -1370.30723874
 Copying the excited state density for this state as the 1-particle RhoCI density.

 Excited State   2:      Singlet-A      3.8293 eV  323.78 nm  f=0.1914  <S**2>=0.000
      62 -> 66        -0.18490
      64 -> 66         0.67539

 Excited State   3:      Singlet-A      3.8844 eV  319.19 nm  f=0.0332  <S**2>=0.000
      63 -> 66         0.69930

 Excited State   4:      Singlet-A      4.1906 eV  295.86 nm  f=0.0211  <S**2>=0.000
      62 -> 66         0.67884
      64 -> 66         0.18355

 Excited State   5:      Singlet-A      4.5229 eV  274.12 nm  f=0.0231  <S**2>=0.000
      61 -> 66         0.39652
      64 -> 68        -0.15725
      65 -> 67         0.55270

 Excited State   6:      Singlet-A      4.6221 eV  268.24 nm  f=0.0161  <S**2>=0.000
      60 -> 66         0.44036
      61 -> 69         0.10207
      64 -> 67        -0.25717
      65 -> 68         0.47476

 Excited State   7:      Singlet-A      4.8567 eV  255.29 nm  f=0.0718  <S**2>=0.000
      61 -> 66         0.56799
      65 -> 67        -0.40920

 Excited State   8:      Singlet-A      4.9632 eV  249.80 nm  f=0.0637  <S**2>=0.000
      60 -> 66         0.52027
      65 -> 68        -0.46636

 Excited State   9:      Singlet-A      5.0728 eV  244.41 nm  f=0.0313  <S**2>=0.000
      60 -> 66         0.17779
      64 -> 67         0.64654
      65 -> 68         0.20195

 Excited State  10:      Singlet-A      5.2061 eV  238.15 nm  f=0.0119  <S**2>=0.000
      61 -> 66         0.13028
      64 -> 68         0.67007
      65 -> 67         0.11600

 The electronic state is 1-A.
 Alpha  occ. eigenvalues --  -88.89106 -88.89105 -14.34635 -14.34629 -10.24057
 Alpha  occ. eigenvalues --  -10.24052 -10.21247 -10.21245 -10.19971 -10.19968
 Alpha  occ. eigenvalues --  -10.19963 -10.19962 -10.19037 -10.19035 -10.19012
 Alpha  occ. eigenvalues --  -10.19008  -7.95138  -7.95137  -5.91688  -5.91681
 Alpha  occ. eigenvalues --   -5.91273  -5.91271  -5.90579  -5.90578  -0.92522
 Alpha  occ. eigenvalues --   -0.92517  -0.85437  -0.84763  -0.79078  -0.75181
 Alpha  occ. eigenvalues --   -0.75177  -0.75129  -0.70514  -0.65420  -0.61956
 Alpha  occ. eigenvalues --   -0.61878  -0.59452  -0.57615  -0.52657  -0.52241
 Alpha  occ. eigenvalues --   -0.51379  -0.51353  -0.47422  -0.45355  -0.43677
 Alpha  occ. eigenvalues --   -0.43585  -0.43498  -0.42478  -0.42363  -0.42228
 Alpha  occ. eigenvalues --   -0.39944  -0.39129  -0.37525  -0.35449  -0.35070
 Alpha  occ. eigenvalues --   -0.34673  -0.34572  -0.32032  -0.29897  -0.26018
 Alpha  occ. eigenvalues --   -0.25733  -0.25087  -0.24042  -0.21747  -0.20295
 Alpha virt. eigenvalues --   -0.05795  -0.01034  -0.00409   0.00517   0.02685
 Alpha virt. eigenvalues --    0.05311   0.05707   0.09317   0.09427   0.12271
 Alpha virt. eigenvalues --    0.12651   0.12685   0.12946   0.15347   0.15848

 Mulliken charges:
               1
     1  N   -0.625405
     2  C    0.269467
     3  C   -0.098866
     4  C   -0.105747
     5  C   -0.064182
     6  S   -0.242044
     7  S   -0.242274
     8  C   -0.064082
     9  C   -0.102321
    10  C   -0.098066
    11  C    0.268979
    12  N   -0.624629
    13  C   -0.098953
    14  C   -0.105794
    15  C   -0.102239
    16  C   -0.098440
    17  H    0.303170
    18  H    0.303561
    19  H    0.116327
    20  H    0.113071
    21  H    0.113473
    22  H    0.117482
    23  H    0.303692
    24  H    0.303611
    25  H    0.116448
    26  H    0.113063
    27  H    0.113303
    28  H    0.117395
 Sum of Mulliken charges =  -0.00000

 Dipole moment (field-independent basis, Debye):
    X=             -0.9983    Y=             13.2341    Z=              1.8039  Tot=             13.3937
 Quadrupole moment (field-independent basis, Debye-Ang):
   XX=            -37.8921   YY=            -98.5677   ZZ=           -113.4992
   XY=              0.1573   XZ=             13.9793   YZ=              4.9872

 Summary of Natural Population Analysis:

                                       Natural Population
                Natural  -----------------------------------------------
    Atom  No    Charge         Core      Valence    Rydberg      Total
 -----------------------------------------------------------------------
      N    1   -0.77164      1.99948     5.76112    0.01105     7.77164
      C    2    0.17862      1.99901     3.80470    0.01767     5.82138
      C    3   -0.25756      1.99904     4.24578    0.01273     6.25756
      C    4   -0.23588      1.99899     4.22022    0.01666     6.23588
      C    5   -0.18454      1.99881     4.16345    0.02228     6.18454
      S    6   -0.12364      9.99924     6.07166    0.05274    16.12364
      S    7   -0.12407      9.99924     6.07209    0.05275    16.12407
      C    8   -0.18430      1.99881     4.16324    0.02225     6.18430
      C    9   -0.23503      1.99900     4.21960    0.01643     6.23503
      C   10   -0.25301      1.99904     4.24123    0.01274     6.25301
      C   11    0.17854      1.99901     3.80480    0.01765     5.82146
      N   12   -0.77097      1.99948     5.76042    0.01107     7.77097
      C   13   -0.25747      1.99904     4.24569    0.01273     6.25747
      C   14   -0.23608      1.99899     4.22041    0.01667     6.23608
      C   15   -0.23506      1.99900     4.21963    0.01644     6.23506
      C   16   -0.25323      1.99904     4.24145    0.01273     6.25323
      H   17    0.43079      0.00000     0.56682    0.00239     0.56921
      H   18    0.43116      0.00000     0.56648    0.00237     0.56884
      H   19    0.25402      0.00000     0.74445    0.00153     0.74598
      H   20    0.25608      0.00000     0.74206    0.00187     0.74392
      H   21    0.25621      0.00000     0.74163    0.00216     0.74379
      H   22    0.25428      0.00000     0.74419    0.00153     0.74572
      H   23    0.43120      0.00000     0.56647    0.00233     0.56880
      H   24    0.43115      0.00000     0.56651    0.00234     0.56885
      H   25    0.25404      0.00000     0.74443    0.00153     0.74596
      H   26    0.25609      0.00000     0.74204    0.00188     0.74391
      H   27    0.25613      0.00000     0.74172    0.00215     0.74387
      H   28    0.25416      0.00000     0.74432    0.00153     0.74584
 =======================================================================
   * Total *   -0.00000     47.98522    81.66662    0.34816   130.00000

 Normal termination of Gaussian 16 at Thu Jul 18 14:08:03 2024.
