 Gaussian 16, Revision A.03,

 -------------------------------------------------------
 # opt=CalcFc B3LYP/6-31G** SCRF=(Solvent=water) scf=xqc
 -------------------------------------------------------

 ----------------------------------
 MERLDGDYUMSLAY-UHFFFAOYSA-N_conf_2
 ----------------------------------
 Symbolic Z-matrix:
 Charge =  0 Multiplicity = 1

 SCF Done:  E(RB3LYP) =  -1370.42422722     A.U. after   13 cycles
 SCF Done:  E(RB3LYP) =  -1370.43046240     A.U. after   11 cycles
 SCF Done:  E(RB3LYP) =  -1370.43098909     A.U. after   12 cycles
 SCF Done:  E(RB3LYP) =  -1370.43103464     A.U. after   10 cycles
 SCF Done:  E(RB3LYP) =  -1370.43104263     A.U. after    9 cycles
 SCF Done:  E(RB3LYP) =  -1370.43104311     A.U. after    8 cycles
 SCF Done:  E(RB3LYP) =  -1370.43104308     A.U. after    7 cycles
 SCF Done:  E(RB3LYP) =  -1370.43104309     A.U. after    6 cycles
 Optimization completed.
    -- Stationary point found.
 Normal termination of Gaussian 16 at Thu Jul 18 13:38:45 2024.

 ----------------------------------------------------------------------
 # freq B3LYP/6-31G** SCRF=(Solvent=water) volume NMR pop=NPA density=c
 urrent Geom=AllCheck Guess=Read
 ----------------------------------------------------------------------

 Structure from the checkpoint file:  "MERLDGDYUMSLAY-UHFFFAOYSA-N_conf_2_1.chk"
 ----------------------------------
 MERLDGDYUMSLAY-UHFFFAOYSA-N_conf_2
 ----------------------------------
 Charge =  0 Multiplicity = 1

 SCF Done:  E(RB3LYP) =  -1370.43104309     A.U. after    1 cycles

      1  N    Isotropic =   194.1041   Anisotropy =    70.3330

      2  C    Isotropic =    47.4637   Anisotropy =   168.2626

      3  C    Isotropic =    83.1596   Anisotropy =   127.4728

      4  C    Isotropic =    58.7409   Anisotropy =   150.7569

      5  C    Isotropic =    68.2081   Anisotropy =   132.1099

      6  S    Isotropic =   296.9427   Anisotropy =   323.7657

      7  S    Isotropic =   297.3323   Anisotropy =   323.3943

      8  C    Isotropic =    68.2048   Anisotropy =   132.3385

      9  C    Isotropic =    59.0045   Anisotropy =   148.6496

     10  C    Isotropic =    82.2475   Anisotropy =   128.2427

     11  C    Isotropic =    47.3937   Anisotropy =   168.2877

     12  N    Isotropic =   194.1847   Anisotropy =    70.4856

     13  C    Isotropic =    83.1520   Anisotropy =   127.4798

     14  C    Isotropic =    58.6411   Anisotropy =   150.7898

     15  C    Isotropic =    59.0433   Anisotropy =   148.5940

     16  C    Isotropic =    82.2905   Anisotropy =   128.2691

     17  H    Isotropic =    28.1628   Anisotropy =    12.3746

     18  H    Isotropic =    28.1816   Anisotropy =    12.0001

     19  H    Isotropic =    25.2348   Anisotropy =     6.1064

     20  H    Isotropic =    24.7163   Anisotropy =     7.1557

     21  H    Isotropic =    24.2069   Anisotropy =     7.5734

     22  H    Isotropic =    25.0660   Anisotropy =     5.4994

     23  H    Isotropic =    28.1522   Anisotropy =    11.8335

     24  H    Isotropic =    28.1562   Anisotropy =    12.1059

     25  H    Isotropic =    25.2135   Anisotropy =     6.0718

     26  H    Isotropic =    24.6775   Anisotropy =     7.0940

     27  H    Isotropic =    24.2136   Anisotropy =     7.5859

     28  H    Isotropic =    25.0711   Anisotropy =     5.5039

  Exact polarizability: 369.734   0.179 286.993  37.783  -0.100 141.654
 Approx polarizability: 395.651   0.685 349.707  45.988  -2.138 182.104

                      1                      2                      3
                      A                      A                      A
 Frequencies --     17.3463                34.1114                34.9477
 Red. masses --      5.7237                 3.7705                 3.7590
 Frc consts  --      0.0010                 0.0026                 0.0027
 IR Inten    --      1.1795                 0.7395                 0.6280

                      4                      5                      6
                      A                      A                      A
 Frequencies --     69.5435                73.3652               138.5993
 Red. masses --      6.7389                 6.9671                 5.5523
 Frc consts  --      0.0192                 0.0221                 0.0628
 IR Inten    --      4.0042                 1.0590                 8.2153

                      7                      8                      9
                      A                      A                      A
 Frequencies --    180.4428               252.3492               269.8615
 Red. masses --      6.3582                 6.2937                 6.3848
 Frc consts  --      0.1220                 0.2361                 0.2740
 IR Inten    --      5.1573                 0.4492                 0.2362

                     10                     11                     12
                      A                      A                      A
 Frequencies --    299.5505               341.9763               369.5960
 Red. masses --      6.1271                 7.0168                 1.0484
 Frc consts  --      0.3239                 0.4835                 0.0844
 IR Inten    --     17.3069                 5.6584                30.3451

                     13                     14                     15
                      A                      A                      A
 Frequencies --    373.7017               383.2188               388.2468
 Red. masses --      1.0724                 7.9182                 9.1833
 Frc consts  --      0.0882                 0.6851                 0.8156
 IR Inten    --     27.5823                63.5105                95.6592

                     16                     17                     18
                      A                      A                      A
 Frequencies --    407.8279               409.9659               416.1874
 Red. masses --      3.0578                 3.5229                 5.9917
 Frc consts  --      0.2997                 0.3489                 0.6115
 IR Inten    --      5.2192                11.1593                27.8965

                     19                     20                     21
                      A                      A                      A
 Frequencies --    423.5973               424.8454               483.8834
 Red. masses --      3.1446                 3.3315                 1.4136
 Frc consts  --      0.3324                 0.3543                 0.1950
 IR Inten    --      3.1083                 2.0684               528.4329

                     22                     23                     24
                      A                      A                      A
 Frequencies --    493.2522               533.8260               540.6719
 Red. masses --      1.3844                 2.5143                 2.3223
 Frc consts  --      0.1984                 0.4221                 0.4000
 IR Inten    --    689.8047               139.9198                91.7377

                     25                     26                     27
                      A                      A                      A
 Frequencies --    648.2108               648.4301               651.0675
 Red. masses --      6.9619                 6.9573                 6.1095
 Frc consts  --      1.7235                 1.7235                 1.5258
 IR Inten    --      0.2611                 0.4635                 4.7849

                     28                     29                     30
                      A                      A                      A
 Frequencies --    653.2394               719.9976               721.1180
 Red. masses --      6.0009                 3.9443                 3.9627
 Frc consts  --      1.5087                 1.2047                 1.2141
 IR Inten    --      5.0116                12.2594                 3.1980

                     31                     32                     33
                      A                      A                      A
 Frequencies --    825.5075               826.3318               833.1420
 Red. masses --      1.2568                 1.2535                 1.9438
 Frc consts  --      0.5046                 0.5043                 0.7950
 IR Inten    --      1.8507                 0.0887                49.3273

                     34                     35                     36
                      A                      A                      A
 Frequencies --    833.5627               843.4660               843.7950
 Red. masses --      1.8784                 4.0572                 3.8005
 Frc consts  --      0.7690                 1.7006                 1.5943
 IR Inten    --     60.7997                18.9563                17.0842

                     37                     38                     39
                      A                      A                      A
 Frequencies --    956.1790               956.8012               964.3795
 Red. masses --      1.2721                 1.2685                 1.3230
 Frc consts  --      0.6852                 0.6842                 0.7249
 IR Inten    --      0.2546                 0.0699                 0.0308

                     40                     41                     42
                      A                      A                      A
 Frequencies --    964.5145              1018.9233              1019.5008
 Red. masses --      1.3237                 3.5825                 3.5803
 Frc consts  --      0.7256                 2.1914                 2.1925
 IR Inten    --      0.0151                 0.8208                 0.5051

                     43                     44                     45
                      A                      A                      A
 Frequencies --   1079.2452              1080.4461              1098.8259
 Red. masses --      1.4710                 1.4704                 3.1458
 Frc consts  --      1.0095                 1.0113                 2.2379
 IR Inten    --      1.1427                 0.9243                37.0820

                     46                     47                     48
                      A                      A                      A
 Frequencies --   1103.1518              1153.6973              1154.1391
 Red. masses --      3.1633                 1.1922                 1.1935
 Frc consts  --      2.2681                 0.9349                 0.9367
 IR Inten    --     89.9240                12.2372                12.1646

                     49                     50                     51
                      A                      A                      A
 Frequencies --   1204.5449              1206.2863              1320.4970
 Red. masses --      1.1401                 1.1366                 1.7963
 Frc consts  --      0.9746                 0.9745                 1.8454
 IR Inten    --     80.9247                37.1203                 6.3891

                     52                     53                     54
                      A                      A                      A
 Frequencies --   1321.5453              1332.6654              1334.1841
 Red. masses --      1.8163                 3.0003                 2.9905
 Frc consts  --      1.8690                 3.1394                 3.1364
 IR Inten    --      4.5107               268.6328               162.8817

                     55                     56                     57
                      A                      A                      A
 Frequencies --   1364.4848              1365.4836              1469.7363
 Red. masses --      2.7477                 2.7412                 2.9649
 Frc consts  --      3.0141                 3.0113                 3.7735
 IR Inten    --      3.3233                 2.3854                 1.8216

                     58                     59                     60
                      A                      A                      A
 Frequencies --   1470.6726              1533.6790              1535.1284
 Red. masses --      2.9505                 2.4847                 2.4898
 Frc consts  --      3.7599                 3.4434                 3.4570
 IR Inten    --      0.9973                91.5091               100.0767

                     61                     62                     63
                      A                      A                      A
 Frequencies --   1605.0408              1605.3690              1641.0507
 Red. masses --      6.0065                 6.0282                 3.5225
 Frc consts  --      9.1168                 9.1535                 5.5892
 IR Inten    --      7.3404                 7.8284               318.6320

                     64                     65                     66
                      A                      A                      A
 Frequencies --   1642.4423              1661.7612              1663.0581
 Red. masses --      3.2896                 1.3317                 1.3312
 Frc consts  --      5.2284                 2.1667                 2.1692
 IR Inten    --    165.4848               379.9263               326.0646

                     67                     68                     69
                      A                      A                      A
 Frequencies --   3183.6538              3183.9661              3184.1364
 Red. masses --      1.0884                 1.0888                 1.0884
 Frc consts  --      6.4996                 6.5031                 6.5016
 IR Inten    --     22.1119                23.6511                15.0904

                     70                     71                     72
                      A                      A                      A
 Frequencies --   3184.9918              3203.6533              3203.8094
 Red. masses --      1.0887                 1.0941                 1.0941
 Frc consts  --      6.5066                 6.6160                 6.6167
 IR Inten    --     21.4958                34.7682                18.6632

                     73                     74                     75
                      A                      A                      A
 Frequencies --   3207.3126              3207.7146              3577.5461
 Red. masses --      1.0943                 1.0942                 1.0478
 Frc consts  --      6.6323                 6.6333                 7.9015
 IR Inten    --      4.4799                 5.8436                99.3858

                     76                     77                     78
                      A                      A                      A
 Frequencies --   3577.8715              3686.0637              3686.4263
 Red. masses --      1.0478                 1.1003                 1.1003
 Frc consts  --      7.9029                 8.8082                 8.8100
 IR Inten    --     83.3008                36.5077                35.7431

 - Thermochemistry -
 -------------------
 Temperature   298.150 Kelvin.  Pressure   1.00000 Atm.
 Atom     1 has atomic number  7 and mass  14.00307

 Molecular mass:   248.04419 amu.
 Principal axes and moments of inertia in atomic units:
                           1         2         3
     Eigenvalues --  2487.749097974.658329723.39314
           X            0.99997   0.00002   0.00732
           Y           -0.00005   0.99999   0.00447
           Z           -0.00732  -0.00447   0.99996
 This molecule is an asymmetric top.
 Rotational symmetry number  1.
 Warning -- assumption of classical behavior for rotation
           may cause significant error
 Rotational temperatures (Kelvin)      0.03482     0.01086     0.00891
 Rotational constants (GHZ):           0.72545     0.22631     0.18561
 Zero-point vibrational energy     570160.3 (Joules/Mol)
                                  136.27159 (Kcal/Mol)
 Warning -- explicit consideration of  24 degrees of freedom as
           vibrations may cause significant error
 Vibrational temperatures:     24.96    49.08    50.28   100.06   105.56
          (Kelvin)            199.41   259.62   363.07   388.27   430.99
                              492.03   531.77   537.67   551.37   558.60
                              586.77   589.85   598.80   609.46   611.26
                              696.20   709.68   768.06   777.91   932.63
                              932.95   936.74   939.87  1035.92  1037.53
                             1187.72  1188.91  1198.71  1199.31  1213.56
                             1214.03  1375.73  1376.62  1387.53  1387.72
                             1466.00  1466.83  1552.79  1554.52  1580.97
                             1587.19  1659.91  1660.55  1733.07  1735.58
                             1899.90  1901.41  1917.41  1919.59  1963.19
                             1964.63  2114.62  2115.97  2206.62  2208.71
                             2309.30  2309.77  2361.11  2363.11  2390.90
                             2392.77  4580.57  4581.02  4581.26  4582.49
                             4609.34  4609.57  4614.61  4615.19  5147.29
                             5147.76  5303.42  5303.95

 Zero-point correction=                           0.217163 (Hartree/Particle)
 Thermal correction to Energy=                    0.232531
 Thermal correction to Enthalpy=                  0.233475
 Thermal correction to Gibbs Free Energy=         0.172180
 Sum of electronic and zero-point Energies=          -1370.213880
 Sum of electronic and thermal Energies=             -1370.198512
 Sum of electronic and thermal Enthalpies=           -1370.197568
 Sum of electronic and thermal Free Energies=        -1370.258863

                     E (Thermal)             CV                S
                      KCal/Mol        Cal/Mol-Kelvin    Cal/Mol-Kelvin
 Total                  145.915             59.160            129.006
 Electronic               0.000              0.000              0.000
 Translational            0.889              2.981             42.426
 Rotational               0.889              2.981             33.622
 Vibrational            144.138             53.198             52.958
 Vibration     1          0.593              1.986              6.917
 Vibration     2          0.594              1.983              5.575
 Vibration     3          0.594              1.983              5.527
 Vibration     4          0.598              1.969              4.166
 Vibration     5          0.599              1.967              4.061
 Vibration     6          0.614              1.915              2.823
 Vibration     7          0.629              1.866              2.324
 Vibration     8          0.664              1.759              1.714
 Vibration     9          0.674              1.729              1.597
 Vibration    10          0.692              1.675              1.419
 Vibration    11          0.721              1.592              1.203
 Vibration    12          0.742              1.535              1.081
 Vibration    13          0.745              1.526              1.065
 Vibration    14          0.752              1.506              1.026
 Vibration    15          0.756              1.495              1.007
 Vibration    16          0.772              1.453              0.934
 Vibration    17          0.774              1.449              0.927
 Vibration    18          0.779              1.435              0.905
 Vibration    19          0.786              1.419              0.880
 Vibration    20          0.787              1.416              0.876
 Vibration    21          0.840              1.286              0.700
 Vibration    22          0.849              1.265              0.675
 Vibration    23          0.889              1.175              0.579
 Vibration    24          0.896              1.160              0.564

 Optimization completed.
    -- Stationary point found.
 Normal termination of Gaussian 16 at Thu Jul 18 13:52:53 2024.
 Gaussian 16:  ES64L-G16RevA.03 25-Dec-2016

 ----------------------------------------------------------------------
 # TD(NStates=10, Root=1) B3LYP/6-31G** SCRF=(Solvent=water) volume pop
 =NPA density=current Geom=AllCheck Guess=Read
 ----------------------------------------------------------------------

 Structure from the checkpoint file:  "MERLDGDYUMSLAY-UHFFFAOYSA-N_conf_2_2.chk"
 ----------------------------------
 MERLDGDYUMSLAY-UHFFFAOYSA-N_conf_2
 ----------------------------------
 Charge =  0 Multiplicity = 1

                         Standard orientation:
 ---------------------------------------------------------------------
 Center     Atomic      Atomic             Coordinates (Angstroms)
 Number     Number       Type             X           Y           Z
 ---------------------------------------------------------------------
      1          7           0       -4.730299    2.270272   -0.336124
      2          6           0       -3.813461    1.279011   -0.042319
      3          6           0       -2.643508    1.571546    0.689694
      4          6           0       -1.696973    0.585326    0.934842
      5          6           0       -1.882140   -0.725296    0.461975
      6         16           0       -0.689763   -1.995569    0.827883
      7         16           0        0.693346   -2.002241   -0.819801
      8          6           0        1.886101   -0.729483   -0.463921
      9          6           0        3.048060   -1.015750    0.273223
     10          6           0        3.996074   -0.032061    0.518743
     11          6           0        3.813319    1.280482    0.032789
     12          7           0        4.782769    2.245912    0.226369
     13          6           0        2.646422    1.566286   -0.706727
     14          6           0        1.702097    0.577044   -0.948480
     15          6           0       -3.047977   -1.018820   -0.266119
     16          6           0       -3.998292   -0.038126   -0.514970
     17          1           0       -5.665298    1.965614   -0.569675
     18          1           0       -4.721321    3.084911    0.262100
     19          1           0       -2.486328    2.578910    1.065168
     20          1           0       -0.805517    0.828753    1.504047
     21          1           0        3.205232   -2.018718    0.657858
     22          1           0        4.890279   -0.270494    1.088124
     23          1           0        4.483854    3.208108    0.146201
     24          1           0        5.420325    2.096208    0.996201
     25          1           0        2.490076    2.570426   -1.091209
     26          1           0        0.810338    0.816345   -1.518954
     27          1           0       -3.209312   -2.026707   -0.635879
     28          1           0       -4.895272   -0.282623   -1.077398
 ---------------------------------------------------------------------

 SCF Done:  E(RB3LYP) =  -1370.43104309     A.U. after    1 cycles

 Excitation energies and oscillator strengths:

 Excited State   1:      Singlet-A      3.3688 eV  368.04 nm  f=0.6607  <S**2>=0.000
      65 -> 66         0.70250
 This state for optimization and/or second-order correction.
 Total Energy, E(TD-HF/TD-DFT) =  -1370.30724171
 Copying the excited state density for this state as the 1-particle RhoCI density.

 Excited State   2:      Singlet-A      3.8295 eV  323.76 nm  f=0.1915  <S**2>=0.000
      62 -> 66        -0.18480
      64 -> 66         0.67560

 Excited State   3:      Singlet-A      3.8845 eV  319.18 nm  f=0.0332  <S**2>=0.000
      63 -> 66         0.69946

 Excited State   4:      Singlet-A      4.1905 eV  295.87 nm  f=0.0211  <S**2>=0.000
      62 -> 66         0.67889
      64 -> 66         0.18338

 Excited State   5:      Singlet-A      4.5229 eV  274.12 nm  f=0.0231  <S**2>=0.000
      61 -> 66         0.39650
      64 -> 68        -0.15725
      65 -> 67         0.55273

 Excited State   6:      Singlet-A      4.6221 eV  268.24 nm  f=0.0161  <S**2>=0.000
      60 -> 66         0.44033
      61 -> 69         0.10206
      64 -> 67        -0.25708
      65 -> 68         0.47483

 Excited State   7:      Singlet-A      4.8567 eV  255.29 nm  f=0.0718  <S**2>=0.000
      61 -> 66         0.56802
      65 -> 67        -0.40917

 Excited State   8:      Singlet-A      4.9632 eV  249.81 nm  f=0.0636  <S**2>=0.000
      60 -> 66         0.52030
      65 -> 68        -0.46633

 Excited State   9:      Singlet-A      5.0729 eV  244.40 nm  f=0.0313  <S**2>=0.000
      60 -> 66         0.17778
      64 -> 67         0.64657
      65 -> 68         0.20185

 Excited State  10:      Singlet-A      5.2062 eV  238.15 nm  f=0.0119  <S**2>=0.000
      61 -> 66         0.13027
      64 -> 68         0.67005
      65 -> 67         0.11600

 The electronic state is 1-A.
 Alpha  occ. eigenvalues --  -88.89106 -88.89105 -14.34635 -14.34629 -10.24057
 Alpha  occ. eigenvalues --  -10.24052 -10.21247 -10.21245 -10.19971 -10.19968
 Alpha  occ. eigenvalues --  -10.19963 -10.19962 -10.19037 -10.19035 -10.19012
 Alpha  occ. eigenvalues --  -10.19008  -7.95138  -7.95137  -5.91688  -5.91681
 Alpha  occ. eigenvalues --   -5.91273  -5.91271  -5.90579  -5.90578  -0.92521
 Alpha  occ. eigenvalues --   -0.92517  -0.85437  -0.84763  -0.79078  -0.75181
 Alpha  occ. eigenvalues --   -0.75177  -0.75129  -0.70514  -0.65420  -0.61956
 Alpha  occ. eigenvalues --   -0.61878  -0.59452  -0.57615  -0.52657  -0.52241
 Alpha  occ. eigenvalues --   -0.51379  -0.51353  -0.47422  -0.45355  -0.43677
 Alpha  occ. eigenvalues --   -0.43586  -0.43498  -0.42478  -0.42363  -0.42228
 Alpha  occ. eigenvalues --   -0.39944  -0.39128  -0.37525  -0.35449  -0.35070
 Alpha  occ. eigenvalues --   -0.34672  -0.34572  -0.32032  -0.29897  -0.26018
 Alpha  occ. eigenvalues --   -0.25733  -0.25087  -0.24042  -0.21747  -0.20295
 Alpha virt. eigenvalues --   -0.05795  -0.01034  -0.00409   0.00517   0.02685
 Alpha virt. eigenvalues --    0.05311   0.05707   0.09317   0.09427   0.12271
 Alpha virt. eigenvalues --    0.12651   0.12686   0.12946   0.15348   0.15848

 Mulliken charges:
               1
     1  N   -0.625415
     2  C    0.269472
     3  C   -0.098443
     4  C   -0.102234
     5  C   -0.064196
     6  S   -0.241972
     7  S   -0.242257
     8  C   -0.064104
     9  C   -0.105791
    10  C   -0.098959
    11  C    0.268976
    12  N   -0.624641
    13  C   -0.098067
    14  C   -0.102323
    15  C   -0.105751
    16  C   -0.098868
    17  H    0.303559
    18  H    0.303168
    19  H    0.117394
    20  H    0.113306
    21  H    0.113062
    22  H    0.116444
    23  H    0.303605
    24  H    0.303687
    25  H    0.117478
    26  H    0.113472
    27  H    0.113072
    28  H    0.116325
 Sum of Mulliken charges =  -0.00000

 Dipole moment (field-independent basis, Debye):
    X=             -0.9996    Y=             13.2327    Z=              1.8032  Tot=             13.3924
 Quadrupole moment (field-independent basis, Debye-Ang):
   XX=            -37.8998   YY=            -98.5706   ZZ=           -113.4936
   XY=              0.1567   XZ=             13.9821   YZ=              4.9882

 Summary of Natural Population Analysis:

                                       Natural Population
                Natural  -----------------------------------------------
    Atom  No    Charge         Core      Valence    Rydberg      Total
 -----------------------------------------------------------------------
      N    1   -0.77166      1.99948     5.76113    0.01104     7.77166
      C    2    0.17863      1.99901     3.80470    0.01767     5.82137
      C    3   -0.25323      1.99904     4.24146    0.01273     6.25323
      C    4   -0.23505      1.99900     4.21962    0.01643     6.23505
      C    5   -0.18456      1.99881     4.16347    0.02228     6.18456
      S    6   -0.12355      9.99924     6.07157    0.05275    16.12355
      S    7   -0.12406      9.99924     6.07207    0.05275    16.12406
      C    8   -0.18432      1.99881     4.16326    0.02225     6.18432
      C    9   -0.23607      1.99899     4.22041    0.01667     6.23607
      C   10   -0.25748      1.99904     4.24571    0.01273     6.25748
      C   11    0.17854      1.99901     3.80480    0.01765     5.82146
      N   12   -0.77100      1.99948     5.76045    0.01107     7.77100
      C   13   -0.25302      1.99904     4.24124    0.01274     6.25302
      C   14   -0.23502      1.99900     4.21960    0.01643     6.23502
      C   15   -0.23589      1.99899     4.22024    0.01666     6.23589
      C   16   -0.25756      1.99904     4.24579    0.01273     6.25756
      H   17    0.43116      0.00000     0.56648    0.00237     0.56884
      H   18    0.43079      0.00000     0.56682    0.00239     0.56921
      H   19    0.25416      0.00000     0.74431    0.00153     0.74584
      H   20    0.25614      0.00000     0.74172    0.00215     0.74386
      H   21    0.25609      0.00000     0.74204    0.00188     0.74391
      H   22    0.25404      0.00000     0.74443    0.00153     0.74596
      H   23    0.43115      0.00000     0.56652    0.00234     0.56885
      H   24    0.43119      0.00000     0.56647    0.00233     0.56881
      H   25    0.25428      0.00000     0.74419    0.00153     0.74572
      H   26    0.25621      0.00000     0.74163    0.00216     0.74379
      H   27    0.25608      0.00000     0.74206    0.00187     0.74392
      H   28    0.25402      0.00000     0.74445    0.00153     0.74598
 =======================================================================
   * Total *    0.00000     47.98522    81.66662    0.34816   130.00000

 Normal termination of Gaussian 16 at Thu Jul 18 14:07:02 2024.
