 Gaussian 16, Revision A.03,

 -------------------------------------------------------
 # opt=CalcFc B3LYP/6-31G** SCRF=(Solvent=water) scf=xqc
 -------------------------------------------------------

 ----------------------------------
 MERLDGDYUMSLAY-UHFFFAOYSA-N_conf_3
 ----------------------------------
 Symbolic Z-matrix:
 Charge =  0 Multiplicity = 1

 SCF Done:  E(RB3LYP) =  -1370.42429843     A.U. after   12 cycles
 SCF Done:  E(RB3LYP) =  -1370.43048571     A.U. after   11 cycles
 SCF Done:  E(RB3LYP) =  -1370.43100152     A.U. after   12 cycles
 SCF Done:  E(RB3LYP) =  -1370.43104230     A.U. after   10 cycles
 SCF Done:  E(RB3LYP) =  -1370.43104984     A.U. after    9 cycles
 SCF Done:  E(RB3LYP) =  -1370.43105024     A.U. after    8 cycles
 SCF Done:  E(RB3LYP) =  -1370.43105024     A.U. after    6 cycles
 Optimization completed.
    -- Stationary point found.
 Normal termination of Gaussian 16 at Thu Jul 18 13:42:28 2024.

 ----------------------------------------------------------------------
 # freq B3LYP/6-31G** SCRF=(Solvent=water) volume NMR pop=NPA density=c
 urrent Geom=AllCheck Guess=Read
 ----------------------------------------------------------------------

 Structure from the checkpoint file:  "MERLDGDYUMSLAY-UHFFFAOYSA-N_conf_3_1.chk"
 ----------------------------------
 MERLDGDYUMSLAY-UHFFFAOYSA-N_conf_3
 ----------------------------------
 Charge =  0 Multiplicity = 1

 SCF Done:  E(RB3LYP) =  -1370.43105024     A.U. after    1 cycles

      1  N    Isotropic =   194.1869   Anisotropy =    70.4891

      2  C    Isotropic =    47.3993   Anisotropy =   168.2664

      3  C    Isotropic =    83.1478   Anisotropy =   127.4648

      4  C    Isotropic =    58.6858   Anisotropy =   150.7376

      5  C    Isotropic =    68.1754   Anisotropy =   132.3452

      6  S    Isotropic =   297.2149   Anisotropy =   323.8799

      7  S    Isotropic =   297.2148   Anisotropy =   323.8796

      8  C    Isotropic =    68.1754   Anisotropy =   132.3452

      9  C    Isotropic =    59.0137   Anisotropy =   148.5741

     10  C    Isotropic =    82.2697   Anisotropy =   128.2022

     11  C    Isotropic =    47.3993   Anisotropy =   168.2665

     12  N    Isotropic =   194.1869   Anisotropy =    70.4891

     13  C    Isotropic =    83.1479   Anisotropy =   127.4648

     14  C    Isotropic =    58.6858   Anisotropy =   150.7376

     15  C    Isotropic =    59.0137   Anisotropy =   148.5740

     16  C    Isotropic =    82.2697   Anisotropy =   128.2022

     17  H    Isotropic =    28.1612   Anisotropy =    12.1131

     18  H    Isotropic =    28.1594   Anisotropy =    11.8400

     19  H    Isotropic =    25.2273   Anisotropy =     6.0756

     20  H    Isotropic =    24.7069   Anisotropy =     7.0917

     21  H    Isotropic =    24.2141   Anisotropy =     7.5684

     22  H    Isotropic =    25.0719   Anisotropy =     5.5006

     23  H    Isotropic =    28.1612   Anisotropy =    12.1131

     24  H    Isotropic =    28.1594   Anisotropy =    11.8400

     25  H    Isotropic =    25.2273   Anisotropy =     6.0756

     26  H    Isotropic =    24.7069   Anisotropy =     7.0917

     27  H    Isotropic =    24.2141   Anisotropy =     7.5684

     28  H    Isotropic =    25.0719   Anisotropy =     5.5006

  Exact polarizability: 370.295  -0.000 287.163  37.575   0.000 141.483
 Approx polarizability: 398.451  -0.000 348.828  43.932   0.000 181.155

                      1                      2                      3
                      A                      A                      A
 Frequencies --     17.5191                34.5578                35.0936
 Red. masses --      5.5602                 3.7966                 3.7955
 Frc consts  --      0.0010                 0.0027                 0.0028
 IR Inten    --      1.3348                 0.5447                 0.6772

                      4                      5                      6
                      A                      A                      A
 Frequencies --     69.0017                73.4344               138.1338
 Red. masses --      6.6151                 6.8567                 5.8225
 Frc consts  --      0.0186                 0.0218                 0.0655
 IR Inten    --      5.3661                 1.0621                 3.4281

                      7                      8                      9
                      A                      A                      A
 Frequencies --    179.8723               252.5253               270.0979
 Red. masses --      6.6393                 6.3072                 6.4597
 Frc consts  --      0.1266                 0.2370                 0.2777
 IR Inten    --      2.0809                 0.2329                 0.0000

                     10                     11                     12
                      A                      A                      A
 Frequencies --    299.0722               342.5159               372.5848
 Red. masses --      5.5516                 6.7220                 1.1068
 Frc consts  --      0.2926                 0.4646                 0.0905
 IR Inten    --     23.3544                 0.7385                 9.2422

                     13                     14                     15
                      A                      A                      A
 Frequencies --    373.0926               383.1867               385.7589
 Red. masses --      1.0420                 6.5523                 7.5291
 Frc consts  --      0.0855                 0.5668                 0.6601
 IR Inten    --     47.7715                54.8715               183.1791

                     16                     17                     18
                      A                      A                      A
 Frequencies --    409.2373               410.6720               417.0569
 Red. masses --      2.9995                 3.5875                 7.3865
 Frc consts  --      0.2960                 0.3565                 0.7570
 IR Inten    --      0.5202                 3.5562                 8.3562

                     19                     20                     21
                      A                      A                      A
 Frequencies --    423.5178               424.8840               491.8566
 Red. masses --      3.1401                 3.4218                 1.3817
 Frc consts  --      0.3318                 0.3640                 0.1969
 IR Inten    --      5.1152                 0.0158              1147.9846

                     22                     23                     24
                      A                      A                      A
 Frequencies --    494.1530               532.4955               535.4351
 Red. masses --      1.3756                 2.5325                 2.4738
 Frc consts  --      0.1979                 0.4231                 0.4179
 IR Inten    --    150.5666               152.2268               102.0324

                     25                     26                     27
                      A                      A                      A
 Frequencies --    648.2241               648.4854               651.4492
 Red. masses --      6.9671                 6.9697                 6.0285
 Frc consts  --      1.7249                 1.7269                 1.5074
 IR Inten    --      0.2621                 0.3192                 3.9041

                     28                     29                     30
                      A                      A                      A
 Frequencies --    653.5401               720.8984               721.2700
 Red. masses --      5.9606                 3.9416                 3.9634
 Frc consts  --      1.5000                 1.2069                 1.2148
 IR Inten    --      9.1702                 0.4641                 5.5201

                     31                     32                     33
                      A                      A                      A
 Frequencies --    825.6602               826.3497               833.4623
 Red. masses --      1.2535                 1.2533                 1.8762
 Frc consts  --      0.5035                 0.5042                 0.7679
 IR Inten    --      0.3710                 0.1263               122.4848

                     34                     35                     36
                      A                      A                      A
 Frequencies --    833.4966               843.4118               843.4780
 Red. masses --      1.8791                 4.0594                 4.0948
 Frc consts  --      0.7692                 1.7013                 1.7164
 IR Inten    --      0.0235                 3.1788                32.8888

                     37                     38                     39
                      A                      A                      A
 Frequencies --    956.6054               956.9400               964.2783
 Red. masses --      1.2706                 1.2669                 1.3245
 Frc consts  --      0.6850                 0.6836                 0.7256
 IR Inten    --      0.0033                 0.0602                 0.0139

                     40                     41                     42
                      A                      A                      A
 Frequencies --    964.4559              1019.3785              1019.5478
 Red. masses --      1.3251                 3.6204                 3.5576
 Frc consts  --      0.7262                 2.2166                 2.1788
 IR Inten    --      0.0281                 0.8565                 0.4181

                     43                     44                     45
                      A                      A                      A
 Frequencies --   1080.3397              1080.5873              1098.8685
 Red. masses --      1.4719                 1.4695                 3.1415
 Frc consts  --      1.0122                 1.0109                 2.2350
 IR Inten    --      1.2077                 0.7192                38.6288

                     46                     47                     48
                      A                      A                      A
 Frequencies --   1103.1662              1154.1052              1154.1537
 Red. masses --      3.1588                 1.1933                 1.1931
 Frc consts  --      2.2649                 0.9365                 0.9364
 IR Inten    --     84.7839                13.8560                10.6910

                     49                     50                     51
                      A                      A                      A
 Frequencies --   1205.0529              1206.5272              1320.6270
 Red. masses --      1.1409                 1.1364                 1.8033
 Frc consts  --      0.9761                 0.9747                 1.8530
 IR Inten    --     80.7144                34.7746                 5.4368

                     52                     53                     54
                      A                      A                      A
 Frequencies --   1321.6355              1332.7987              1334.2769
 Red. masses --      1.8196                 2.9992                 2.9905
 Frc consts  --      1.8726                 3.1390                 3.1368
 IR Inten    --      5.3824               266.0017               162.6828

                     55                     56                     57
                      A                      A                      A
 Frequencies --   1364.9900              1365.6537              1470.0811
 Red. masses --      2.7183                 2.7457                 2.9452
 Frc consts  --      2.9841                 3.0171                 3.7502
 IR Inten    --      3.8348                 1.8632                 1.5805

                     58                     59                     60
                      A                      A                      A
 Frequencies --   1470.8209              1533.8870              1535.2586
 Red. masses --      2.9482                 2.4870                 2.4909
 Frc consts  --      3.7578                 3.4475                 3.4591
 IR Inten    --      1.1060                91.3214               101.0300

                     61                     62                     63
                      A                      A                      A
 Frequencies --   1605.0955              1605.4176              1641.1935
 Red. masses --      6.0044                 6.0275                 3.6031
 Frc consts  --      9.1142                 9.1530                 5.7181
 IR Inten    --      7.3375                 7.8625               353.6629

                     64                     65                     66
                      A                      A                      A
 Frequencies --   1642.5628              1662.6729              1663.2510
 Red. masses --      3.3314                 1.2999                 1.3433
 Frc consts  --      5.2957                 2.1172                 2.1894
 IR Inten    --    151.7659               331.3227               340.3824

                     67                     68                     69
                      A                      A                      A
 Frequencies --   3183.4194              3183.4423              3184.8732
 Red. masses --      1.0885                 1.0884                 1.0886
 Frc consts  --      6.4991                 6.4990                 6.5061
 IR Inten    --     38.5712                 4.0086                 7.5713

                     70                     71                     72
                      A                      A                      A
 Frequencies --   3185.0232              3203.6284              3203.7628
 Red. masses --      1.0887                 1.0941                 1.0941
 Frc consts  --      6.5068                 6.6157                 6.6164
 IR Inten    --     32.0535                35.6064                17.2975

                     73                     74                     75
                      A                      A                      A
 Frequencies --   3207.3503              3207.7596              3577.5022
 Red. masses --      1.0943                 1.0942                 1.0478
 Frc consts  --      6.6326                 6.6335                 7.9011
 IR Inten    --      4.6111                 6.0267                88.1673

                     76                     77                     78
                      A                      A                      A
 Frequencies --   3577.6360              3686.1100              3686.1107
 Red. masses --      1.0479                 1.1003                 1.1003
 Frc consts  --      7.9021                 8.8085                 8.8085
 IR Inten    --     84.3148                37.8307                33.7023

 - Thermochemistry -
 -------------------
 Temperature   298.150 Kelvin.  Pressure   1.00000 Atm.
 Atom     1 has atomic number  7 and mass  14.00307

 Molecular mass:   248.04419 amu.
 Principal axes and moments of inertia in atomic units:
                           1         2         3
     Eigenvalues --  2479.558147994.510219738.50652
           X            0.99996  -0.00000   0.00929
           Y            0.00000   1.00000   0.00000
           Z           -0.00929  -0.00000   0.99996
 This molecule is an asymmetric top.
 Rotational symmetry number  1.
 Warning -- assumption of classical behavior for rotation
           may cause significant error
 Rotational temperatures (Kelvin)      0.03493     0.01083     0.00889
 Rotational constants (GHZ):           0.72785     0.22575     0.18532
 Zero-point vibrational energy     570237.9 (Joules/Mol)
                                  136.29012 (Kcal/Mol)
 Warning -- explicit consideration of  24 degrees of freedom as
           vibrations may cause significant error
 Vibrational temperatures:     25.21    49.72    50.49    99.28   105.66
          (Kelvin)            198.74   258.80   363.33   388.61   430.30
                              492.80   536.07   536.80   551.32   555.02
                              588.80   590.87   600.05   609.35   611.31
                              707.67   710.98   766.14   770.37   932.65
                              933.03   937.29   940.30  1037.21  1037.75
                             1187.94  1188.93  1199.17  1199.22  1213.48
                             1213.58  1376.34  1376.82  1387.38  1387.64
                             1466.66  1466.90  1554.37  1554.72  1581.03
                             1587.21  1660.50  1660.57  1733.80  1735.92
                             1900.09  1901.54  1917.60  1919.73  1963.92
                             1964.87  2115.12  2116.18  2206.92  2208.89
                             2309.37  2309.84  2361.31  2363.28  2392.22
                             2393.05  4580.23  4580.26  4582.32  4582.54
                             4609.31  4609.50  4614.66  4615.25  5147.23
                             5147.42  5303.49  5303.49

 Zero-point correction=                           0.217192 (Hartree/Particle)
 Thermal correction to Energy=                    0.232554
 Thermal correction to Enthalpy=                  0.233498
 Thermal correction to Gibbs Free Energy=         0.172228
 Sum of electronic and zero-point Energies=          -1370.213858
 Sum of electronic and thermal Energies=             -1370.198496
 Sum of electronic and thermal Enthalpies=           -1370.197552
 Sum of electronic and thermal Free Energies=        -1370.258822

                     E (Thermal)             CV                S
                      KCal/Mol        Cal/Mol-Kelvin    Cal/Mol-Kelvin
 Total                  145.930             59.141            128.954
 Electronic               0.000              0.000              0.000
 Translational            0.889              2.981             42.426
 Rotational               0.889              2.981             33.623
 Vibrational            144.153             53.180             52.905
 Vibration     1          0.593              1.986              6.897
 Vibration     2          0.594              1.983              5.549
 Vibration     3          0.594              1.982              5.518
 Vibration     4          0.598              1.969              4.182
 Vibration     5          0.599              1.967              4.059
 Vibration     6          0.614              1.915              2.830
 Vibration     7          0.629              1.867              2.330
 Vibration     8          0.664              1.759              1.713
 Vibration     9          0.674              1.728              1.596
 Vibration    10          0.692              1.675              1.422
 Vibration    11          0.722              1.590              1.200
 Vibration    12          0.744              1.528              1.069
 Vibration    13          0.745              1.527              1.067
 Vibration    14          0.752              1.506              1.027
 Vibration    15          0.754              1.501              1.017
 Vibration    16          0.774              1.450              0.929
 Vibration    17          0.775              1.447              0.924
 Vibration    18          0.780              1.433              0.902
 Vibration    19          0.786              1.419              0.880
 Vibration    20          0.787              1.416              0.876
 Vibration    21          0.848              1.268              0.679
 Vibration    22          0.850              1.263              0.673
 Vibration    23          0.887              1.178              0.582
 Vibration    24          0.890              1.172              0.575

 Optimization completed.
    -- Stationary point found.
 Normal termination of Gaussian 16 at Thu Jul 18 13:57:07 2024.
 Gaussian 16:  ES64L-G16RevA.03 25-Dec-2016

 ----------------------------------------------------------------------
 # TD(NStates=10, Root=1) B3LYP/6-31G** SCRF=(Solvent=water) volume pop
 =NPA density=current Geom=AllCheck Guess=Read
 ----------------------------------------------------------------------

 Structure from the checkpoint file:  "MERLDGDYUMSLAY-UHFFFAOYSA-N_conf_3_2.chk"
 ----------------------------------
 MERLDGDYUMSLAY-UHFFFAOYSA-N_conf_3
 ----------------------------------
 Charge =  0 Multiplicity = 1

                         Standard orientation:
 ---------------------------------------------------------------------
 Center     Atomic      Atomic             Coordinates (Angstroms)
 Number     Number       Type             X           Y           Z
 ---------------------------------------------------------------------
      1          7           0        4.788565    2.239960    0.230935
      2          6           0        3.817152    1.277046    0.034575
      3          6           0        2.646396    1.570170   -0.695960
      4          6           0        1.699673    0.583947   -0.940614
      5          6           0        1.884877   -0.726683   -0.467708
      6         16           0        0.688764   -1.995554   -0.826285
      7         16           0       -0.688763   -1.995553    0.826288
      8          6           0       -1.884876   -0.726683    0.467709
      9          6           0       -3.050765   -1.020278   -0.260264
     10          6           0       -4.001361   -0.039717   -0.508335
     11          6           0       -3.817153    1.277043   -0.034577
     12          7           0       -4.788568    2.239956   -0.230939
     13          6           0       -2.646402    1.570167    0.695966
     14          6           0       -1.699678    0.583945    0.940621
     15          6           0        3.050770   -1.020278    0.260257
     16          6           0        4.001365   -0.039716    0.508327
     17          1           0        5.430213    2.083079    0.995934
     18          1           0        4.489933    3.203044    0.160952
     19          1           0        2.489005    2.577637   -1.071207
     20          1           0        0.804954    0.828932   -1.504005
     21          1           0       -3.208986   -2.026561   -0.635687
     22          1           0       -4.898596   -0.283863   -1.070473
     23          1           0       -5.430209    2.083076   -0.995943
     24          1           0       -4.489937    3.203040   -0.160952
     25          1           0       -2.489016    2.577634    1.071218
     26          1           0       -0.804963    0.828931    1.504018
     27          1           0        3.208996   -2.026563    0.635675
     28          1           0        4.898605   -0.283862    1.070458
 ---------------------------------------------------------------------

 SCF Done:  E(RB3LYP) =  -1370.43105024     A.U. after    1 cycles

 Excitation energies and oscillator strengths:

 Excited State   1:      Singlet-A      3.3677 eV  368.16 nm  f=0.6662  <S**2>=0.000
      65 -> 66         0.70252
 This state for optimization and/or second-order correction.
 Total Energy, E(TD-HF/TD-DFT) =  -1370.30729052
 Copying the excited state density for this state as the 1-particle RhoCI density.

 Excited State   2:      Singlet-A      3.8275 eV  323.93 nm  f=0.1885  <S**2>=0.000
      62 -> 66         0.19323
      64 -> 66         0.67498

 Excited State   3:      Singlet-A      3.8882 eV  318.87 nm  f=0.0332  <S**2>=0.000
      63 -> 66         0.70114

 Excited State   4:      Singlet-A      4.1912 eV  295.82 nm  f=0.0233  <S**2>=0.000
      62 -> 66         0.67677
      64 -> 66        -0.19092

 Excited State   5:      Singlet-A      4.5222 eV  274.17 nm  f=0.0234  <S**2>=0.000
      61 -> 66        -0.39575
      64 -> 68        -0.15728
      65 -> 67         0.55323

 Excited State   6:      Singlet-A      4.6210 eV  268.31 nm  f=0.0162  <S**2>=0.000
      60 -> 66         0.43964
      61 -> 69         0.10194
      64 -> 67        -0.25603
      65 -> 68         0.47604

 Excited State   7:      Singlet-A      4.8562 eV  255.31 nm  f=0.0727  <S**2>=0.000
      61 -> 66         0.56862
      65 -> 67         0.40837

 Excited State   8:      Singlet-A      4.9618 eV  249.88 nm  f=0.0642  <S**2>=0.000
      60 -> 66         0.52123
      65 -> 68        -0.46536

 Excited State   9:      Singlet-A      5.0736 eV  244.37 nm  f=0.0303  <S**2>=0.000
      60 -> 66         0.17682
      64 -> 67         0.64692
      65 -> 68         0.20123

 Excited State  10:      Singlet-A      5.2061 eV  238.15 nm  f=0.0095  <S**2>=0.000
      61 -> 66        -0.12995
      64 -> 68         0.66911
      65 -> 67         0.11622

 The electronic state is 1-A.
 Alpha  occ. eigenvalues --  -88.89107 -88.89106 -14.34631 -14.34631 -10.24054
 Alpha  occ. eigenvalues --  -10.24054 -10.21248 -10.21248 -10.19973 -10.19973
 Alpha  occ. eigenvalues --  -10.19963 -10.19963 -10.19036 -10.19036 -10.19013
 Alpha  occ. eigenvalues --  -10.19013  -7.95139  -7.95138  -5.91688  -5.91681
 Alpha  occ. eigenvalues --   -5.91273  -5.91272  -5.90579  -5.90579  -0.92523
 Alpha  occ. eigenvalues --   -0.92519  -0.85438  -0.84764  -0.79078  -0.75184
 Alpha  occ. eigenvalues --   -0.75179  -0.75130  -0.70514  -0.65422  -0.61959
 Alpha  occ. eigenvalues --   -0.61880  -0.59453  -0.57614  -0.52657  -0.52240
 Alpha  occ. eigenvalues --   -0.51379  -0.51353  -0.47408  -0.45360  -0.43672
 Alpha  occ. eigenvalues --   -0.43587  -0.43489  -0.42504  -0.42366  -0.42226
 Alpha  occ. eigenvalues --   -0.40237  -0.38908  -0.37153  -0.35451  -0.35404
 Alpha  occ. eigenvalues --   -0.34685  -0.34656  -0.31919  -0.29885  -0.26019
 Alpha  occ. eigenvalues --   -0.25736  -0.25082  -0.24061  -0.21752  -0.20292
 Alpha virt. eigenvalues --   -0.05799  -0.01036  -0.00415   0.00509   0.02651
 Alpha virt. eigenvalues --    0.05357   0.05729   0.09334   0.09390   0.12266
 Alpha virt. eigenvalues --    0.12660   0.12681   0.12956   0.15305   0.15814

 Mulliken charges:
               1
     1  N   -0.624734
     2  C    0.268956
     3  C   -0.098091
     4  C   -0.102397
     5  C   -0.064070
     6  S   -0.242369
     7  S   -0.242368
     8  C   -0.064070
     9  C   -0.105755
    10  C   -0.098950
    11  C    0.268955
    12  N   -0.624735
    13  C   -0.098091
    14  C   -0.102397
    15  C   -0.105755
    16  C   -0.098950
    17  H    0.303651
    18  H    0.303564
    19  H    0.117375
    20  H    0.113298
    21  H    0.113078
    22  H    0.116446
    23  H    0.303651
    24  H    0.303564
    25  H    0.117375
    26  H    0.113298
    27  H    0.113078
    28  H    0.116447
 Sum of Mulliken charges =  -0.00000

 Dipole moment (field-independent basis, Debye):
    X=              0.0000    Y=             13.7312    Z=             -0.0000  Tot=             13.7312
 Quadrupole moment (field-independent basis, Debye-Ang):
   XX=            -47.9978   YY=            -95.8358   ZZ=           -112.1797
   XY=              0.0001   XZ=             23.0499   YZ=              0.0000

 Summary of Natural Population Analysis:

                                       Natural Population
                Natural  -----------------------------------------------
    Atom  No    Charge         Core      Valence    Rydberg      Total
 -----------------------------------------------------------------------
      N    1   -0.77115      1.99948     5.76060    0.01107     7.77115
      C    2    0.17854      1.99901     3.80481    0.01765     5.82146
      C    3   -0.25313      1.99904     4.24135    0.01274     6.25313
      C    4   -0.23517      1.99900     4.21973    0.01644     6.23517
      C    5   -0.18436      1.99881     4.16330    0.02225     6.18436
      S    6   -0.12408      9.99924     6.07210    0.05275    16.12408
      S    7   -0.12408      9.99924     6.07209    0.05275    16.12408
      C    8   -0.18436      1.99881     4.16330    0.02225     6.18436
      C    9   -0.23598      1.99899     4.22033    0.01666     6.23598
      C   10   -0.25745      1.99904     4.24567    0.01273     6.25745
      C   11    0.17854      1.99901     3.80481    0.01765     5.82146
      N   12   -0.77116      1.99948     5.76060    0.01107     7.77116
      C   13   -0.25313      1.99904     4.24135    0.01274     6.25313
      C   14   -0.23517      1.99900     4.21973    0.01644     6.23517
      C   15   -0.23598      1.99899     4.22032    0.01666     6.23598
      C   16   -0.25745      1.99904     4.24567    0.01273     6.25745
      H   17    0.43117      0.00000     0.56650    0.00233     0.56883
      H   18    0.43112      0.00000     0.56654    0.00234     0.56888
      H   19    0.25423      0.00000     0.74424    0.00153     0.74577
      H   20    0.25612      0.00000     0.74171    0.00216     0.74388
      H   21    0.25610      0.00000     0.74203    0.00188     0.74390
      H   22    0.25404      0.00000     0.74443    0.00153     0.74596
      H   23    0.43117      0.00000     0.56650    0.00233     0.56883
      H   24    0.43112      0.00000     0.56654    0.00234     0.56888
      H   25    0.25423      0.00000     0.74424    0.00153     0.74577
      H   26    0.25612      0.00000     0.74171    0.00216     0.74388
      H   27    0.25610      0.00000     0.74203    0.00188     0.74390
      H   28    0.25404      0.00000     0.74443    0.00153     0.74596
 =======================================================================
   * Total *    0.00000     47.98522    81.66667    0.34811   130.00000

 Normal termination of Gaussian 16 at Thu Jul 18 14:11:52 2024.
