 Gaussian 16, Revision A.03,

 -------------------------------------------------------
 # opt=CalcFc B3LYP/6-31G** SCRF=(Solvent=water) scf=xqc
 -------------------------------------------------------

 ----------------------------------
 AOHJOMMDDJHIJH-VKHMYHEASA-N_conf_1
 ----------------------------------
 Symbolic Z-matrix:
 Charge =  0 Multiplicity = 1

 SCF Done:  E(RB3LYP) =  -229.852328488     A.U. after   11 cycles
 SCF Done:  E(RB3LYP) =  -229.855175512     A.U. after    9 cycles
 SCF Done:  E(RB3LYP) =  -229.855271748     A.U. after    9 cycles
 SCF Done:  E(RB3LYP) =  -229.855275316     A.U. after    8 cycles
 SCF Done:  E(RB3LYP) =  -229.855275156     A.U. after    6 cycles
 Optimization completed.
    -- Stationary point found.
 Normal termination of Gaussian 16 at Tue Jul  9 18:07:10 2024.

 ----------------------------------------------------------------------
 # freq B3LYP/6-31G** SCRF=(Solvent=water) volume NMR pop=NPA density=c
 urrent Geom=AllCheck Guess=Read
 ----------------------------------------------------------------------

 Structure from the checkpoint file:  "AOHJOMMDDJHIJH-VKHMYHEASA-N_conf_1_1.chk"
 ----------------------------------
 AOHJOMMDDJHIJH-VKHMYHEASA-N_conf_1
 ----------------------------------
 Charge =  0 Multiplicity = 1

 SCF Done:  E(RB3LYP) =  -229.855275156     A.U. after    1 cycles

      1  C    Isotropic =   167.0894   Anisotropy =    34.6527

      2  C    Isotropic =   140.2991   Anisotropy =    31.0189

      3  N    Isotropic =   218.5077   Anisotropy =    43.4794

      4  C    Isotropic =   140.3375   Anisotropy =    31.3700

      5  N    Isotropic =   234.7392   Anisotropy =    24.2093

      6  H    Isotropic =    30.8330   Anisotropy =     8.2844

      7  H    Isotropic =    29.8439   Anisotropy =     7.8611

      8  H    Isotropic =    31.2904   Anisotropy =     7.2102

      9  H    Isotropic =    29.1797   Anisotropy =     5.7164

     10  H    Isotropic =    31.0063   Anisotropy =    13.8025

     11  H    Isotropic =    31.7237   Anisotropy =    11.3425

     12  H    Isotropic =    29.7245   Anisotropy =     4.7286

     13  H    Isotropic =    28.6617   Anisotropy =     6.2376

     14  H    Isotropic =    31.5600   Anisotropy =    13.1813

     15  H    Isotropic =    31.0094   Anisotropy =    15.3696

  Exact polarizability:  64.568  -0.855  54.930   0.403  -2.291  57.878
 Approx polarizability:  65.958  -2.081  58.308   0.103  -2.566  64.521

                      1                      2                      3
                      A                      A                      A
 Frequencies --    116.4180               227.3685               249.7950
 Red. masses --      2.1846                 1.1414                 1.0707
 Frc consts  --      0.0174                 0.0348                 0.0394
 IR Inten    --     11.5625                63.6811                35.2782

                      4                      5                      6
                      A                      A                      A
 Frequencies --    254.7755               282.2938               392.1582
 Red. masses --      1.2925                 1.8210                 2.3936
 Frc consts  --      0.0494                 0.0855                 0.2169
 IR Inten    --      3.6879                40.3717                19.7094

                      7                      8                      9
                      A                      A                      A
 Frequencies --    446.6061               495.6333               811.6218
 Red. masses --      2.0437                 3.3026                 2.2960
 Frc consts  --      0.2402                 0.4780                 0.8911
 IR Inten    --      6.4541                 3.6157                33.9112

                     10                     11                     12
                      A                      A                      A
 Frequencies --    877.9027               915.7954               934.7586
 Red. masses --      1.2946                 1.7551                 1.2728
 Frc consts  --      0.5879                 0.8673                 0.6553
 IR Inten    --     87.4515                24.0670               275.5540

                     13                     14                     15
                      A                      A                      A
 Frequencies --    966.2227              1025.3187              1084.7061
 Red. masses --      1.4971                 1.6372                 2.7879
 Frc consts  --      0.8235                 1.0141                 1.9326
 IR Inten    --     27.1207                16.4035                13.2362

                     16                     17                     18
                      A                      A                      A
 Frequencies --   1112.2344              1147.9932              1190.4448
 Red. masses --      1.0639                 2.1947                 1.8378
 Frc consts  --      0.7755                 1.7041                 1.5345
 IR Inten    --      4.4589                 5.5020                24.3050

                     19                     20                     21
                      A                      A                      A
 Frequencies --   1290.5115              1321.6124              1373.9847
 Red. masses --      1.4116                 1.2499                 1.3146
 Frc consts  --      1.3851                 1.2862                 1.4622
 IR Inten    --      1.1391                 2.6363                11.5462

                     22                     23                     24
                      A                      A                      A
 Frequencies --   1401.4351              1406.2271              1437.7936
 Red. masses --      1.2641                 1.3024                 1.4524
 Frc consts  --      1.4628                 1.5174                 1.7690
 IR Inten    --     12.5211                12.6458                 2.0779

                     25                     26                     27
                      A                      A                      A
 Frequencies --   1492.5697              1507.1074              1518.3160
 Red. masses --      1.0559                 1.0756                 1.0845
 Frc consts  --      1.3859                 1.4394                 1.4730
 IR Inten    --      4.4481                 4.7328                 3.3158

                     28                     29                     30
                      A                      A                      A
 Frequencies --   1656.4477              1657.7785              2979.9648
 Red. masses --      1.0853                 1.0924                 1.0671
 Frc consts  --      1.7545                 1.7688                 5.5829
 IR Inten    --     69.9737                 1.6739               119.9568

                     31                     32                     33
                      A                      A                      A
 Frequencies --   3007.5908              3029.4252              3042.2062
 Red. masses --      1.0829                 1.0387                 1.0952
 Frc consts  --      5.7713                 5.6164                 5.9721
 IR Inten    --     31.0200                25.7501               105.6298

                     34                     35                     36
                      A                      A                      A
 Frequencies --   3095.9689              3123.7215              3462.0838
 Red. masses --      1.1011                 1.1005                 1.0512
 Frc consts  --      6.2184                 6.3267                 7.4234
 IR Inten    --     71.0763                43.3713                 2.0052

                     37                     38                     39
                      A                      A                      A
 Frequencies --   3480.9663              3541.5520              3559.7916
 Red. masses --      1.0512                 1.0902                 1.0912
 Frc consts  --      7.5047                 8.0567                 8.1474
 IR Inten    --      0.9506                 0.1747                 0.0199

 - Thermochemistry -
 -------------------
 Temperature   298.150 Kelvin.  Pressure   1.00000 Atm.
 Atom     1 has atomic number  6 and mass  12.00000

 Molecular mass:    74.08440 amu.
 Principal axes and moments of inertia in atomic units:
                           1         2         3
     Eigenvalues --   236.91385 520.04104 680.53621
           X            0.99903   0.04352   0.00702
           Y           -0.04344   0.99900  -0.01059
           Z           -0.00747   0.01027   0.99992
 This molecule is an asymmetric top.
 Rotational symmetry number  1.
 Rotational temperatures (Kelvin)      0.36559     0.16655     0.12727
 Rotational constants (GHZ):           7.61771     3.47038     2.65194
 Zero-point vibrational energy     364377.1 (Joules/Mol)
                                   87.08823 (Kcal/Mol)
 Warning -- explicit consideration of   8 degrees of freedom as
           vibrations may cause significant error
 Vibrational temperatures:    167.50   327.13   359.40   366.57   406.16
          (Kelvin)            564.23   642.57   713.11  1167.74  1263.11
                             1317.63  1344.91  1390.18  1475.20  1560.65
                             1600.26  1651.71  1712.78  1856.76  1901.51
                             1976.86  2016.35  2023.25  2068.66  2147.47
                             2168.39  2184.52  2383.26  2385.17  4287.50
                             4327.25  4358.67  4377.06  4454.41  4494.34
                             4981.17  5008.33  5095.50  5121.75

 Zero-point correction=                           0.138784 (Hartree/Particle)
 Thermal correction to Energy=                    0.145526
 Thermal correction to Enthalpy=                  0.146470
 Thermal correction to Gibbs Free Energy=         0.109213
 Sum of electronic and zero-point Energies=           -229.716491
 Sum of electronic and thermal Energies=              -229.709749
 Sum of electronic and thermal Enthalpies=            -229.708805
 Sum of electronic and thermal Free Energies=         -229.746062

                     E (Thermal)             CV                S
                      KCal/Mol        Cal/Mol-Kelvin    Cal/Mol-Kelvin
 Total                   91.319             23.928             78.415
 Electronic               0.000              0.000              0.000
 Translational            0.889              2.981             38.824
 Rotational               0.889              2.981             25.931
 Vibrational             89.541             17.967             13.660
 Vibration     1          0.608              1.936              3.159
 Vibration     2          0.651              1.799              1.900
 Vibration     3          0.663              1.763              1.732
 Vibration     4          0.665              1.755              1.697
 Vibration     5          0.681              1.706              1.520
 Vibration     6          0.760              1.487              0.992
 Vibration     7          0.806              1.368              0.806
 Vibration     8          0.851              1.260              0.669

 Optimization completed.
    -- Stationary point found.
 Normal termination of Gaussian 16 at Tue Jul  9 18:18:35 2024.
 Gaussian 16:  EM64L-G16RevA.03 25-Dec-2016

 ----------------------------------------------------------------------
 # TD(NStates=10, Root=1) B3LYP/6-31G** SCRF=(Solvent=water) volume pop
 =NPA density=current Geom=AllCheck Guess=Read
 ----------------------------------------------------------------------

 Structure from the checkpoint file:  "AOHJOMMDDJHIJH-VKHMYHEASA-N_conf_1_2.chk"
 ----------------------------------
 AOHJOMMDDJHIJH-VKHMYHEASA-N_conf_1
 ----------------------------------
 Charge =  0 Multiplicity = 1

                         Standard orientation:
 ---------------------------------------------------------------------
 Center     Atomic      Atomic             Coordinates (Angstroms)
 Number     Number       Type             X           Y           Z
 ---------------------------------------------------------------------
      1          6           0        0.724901    1.408904    0.145472
      2          6           0        0.476121   -0.028599   -0.329022
      3          7           0        1.594248   -0.951990   -0.055637
      4          6           0       -0.799900   -0.631922    0.277234
      5          7           0       -1.995705    0.136564   -0.096411
      6          1           0        1.611531    1.830955   -0.340501
      7          1           0       -0.131893    2.051760   -0.075573
      8          1           0        0.892650    1.428842    1.229897
      9          1           0        0.346243   -0.014618   -1.421583
     10          1           0        2.439198   -0.577431   -0.484998
     11          1           0        1.785306   -0.938840    0.947105
     12          1           0       -0.714849   -0.610768    1.372612
     13          1           0       -0.841645   -1.692784   -0.016887
     14          1           0       -2.178977   -0.003088   -1.089108
     15          1           0       -2.804099   -0.256342    0.381266
 ---------------------------------------------------------------------

 SCF Done:  E(RB3LYP) =  -229.855275156     A.U. after    1 cycles

 Excitation energies and oscillator strengths:

 Excited State   1:      Singlet-A      7.4542 eV  166.33 nm  f=0.0133  <S**2>=0.000
      20 -> 22         0.16562
      20 -> 23         0.23182
      21 -> 22         0.41435
      21 -> 23         0.49317
 This state for optimization and/or second-order correction.
 Total Energy, E(TD-HF/TD-DFT) =  -229.581340007
 Copying the excited state density for this state as the 1-particle RhoCI density.

 Excited State   2:      Singlet-A      7.5202 eV  164.87 nm  f=0.0276  <S**2>=0.000
      20 -> 22         0.51970
      20 -> 23        -0.31632
      21 -> 22        -0.28264
      21 -> 23         0.21086

 Excited State   3:      Singlet-A      7.9848 eV  155.28 nm  f=0.0077  <S**2>=0.000
      20 -> 22         0.29579
      20 -> 23        -0.18997
      21 -> 22         0.46273
      21 -> 23        -0.39568

 Excited State   4:      Singlet-A      8.0443 eV  154.13 nm  f=0.0043  <S**2>=0.000
      20 -> 22         0.33311
      20 -> 23         0.54822
      21 -> 22        -0.17653
      21 -> 23        -0.22210

 Excited State   5:      Singlet-A      8.6086 eV  144.02 nm  f=0.0446  <S**2>=0.000
      20 -> 24        -0.13521
      21 -> 24         0.67691

 Excited State   6:      Singlet-A      8.6661 eV  143.07 nm  f=0.0034  <S**2>=0.000
      20 -> 24         0.67550
      21 -> 24         0.12899
      21 -> 27        -0.10568

 Excited State   7:      Singlet-A      9.6012 eV  129.13 nm  f=0.0286  <S**2>=0.000
      20 -> 25         0.51832
      21 -> 25        -0.44256

 Excited State   8:      Singlet-A      9.6237 eV  128.83 nm  f=0.1026  <S**2>=0.000
      20 -> 25         0.12984
      20 -> 26         0.22546
      21 -> 26         0.62671
      21 -> 27         0.11446

 Excited State   9:      Singlet-A      9.7286 eV  127.44 nm  f=0.0392  <S**2>=0.000
      20 -> 25        -0.30304
      20 -> 27         0.15707
      21 -> 24         0.11037
      21 -> 25        -0.33547
      21 -> 27         0.44879
      21 -> 29         0.11258

 Excited State  10:      Singlet-A      9.7713 eV  126.89 nm  f=0.0069  <S**2>=0.000
      20 -> 26         0.33512
      20 -> 27         0.49230
      20 -> 29        -0.10998
      20 -> 31        -0.10639
      21 -> 25        -0.11475
      21 -> 26        -0.10556
      21 -> 27        -0.24920

 The electronic state is 1-A.
 Alpha  occ. eigenvalues --  -14.30990 -14.30854 -10.20644 -10.19907 -10.16505
 Alpha  occ. eigenvalues --   -0.88868  -0.86099  -0.72580  -0.66059  -0.57150
 Alpha  occ. eigenvalues --   -0.48062  -0.47727  -0.45560  -0.41342  -0.39820
 Alpha  occ. eigenvalues --   -0.38772  -0.36982  -0.34012  -0.32179  -0.23818
 Alpha  occ. eigenvalues --   -0.23533
 Alpha virt. eigenvalues --    0.08701   0.09045   0.12366   0.15525   0.16075
 Alpha virt. eigenvalues --    0.16445   0.18036   0.18910   0.19365   0.20334
 Alpha virt. eigenvalues --    0.24404   0.25273   0.26425   0.28483   0.52130

 Mulliken charges:
               1
     1  C   -0.304008
     2  C    0.067242
     3  N   -0.632223
     4  C   -0.089976
     5  N   -0.018875
     6  H    0.097104
     7  H    0.090880
     8  H    0.103618
     9  H    0.065722
    10  H    0.256728
    11  H    0.248617
    12  H    0.094314
    13  H    0.114621
    14  H   -0.051087
    15  H   -0.042676
 Sum of Mulliken charges =  -0.00000

 Dipole moment (field-independent basis, Debye):
    X=              1.7450    Y=              1.2697    Z=              1.3531  Tot=              2.5472
 Quadrupole moment (field-independent basis, Debye-Ang):
   XX=            -35.6121   YY=            -37.7249   ZZ=            -35.1677
   XY=              0.8080   XZ=              0.1278   YZ=             -1.4822

 Summary of Natural Population Analysis:

                                       Natural Population
                Natural  -----------------------------------------------
    Atom  No    Charge         Core      Valence    Rydberg      Total
 -----------------------------------------------------------------------
      C    1   -0.70623      1.99940     4.69825    0.00858     6.70623
      C    2   -0.07746      1.99922     4.05890    0.01934     6.07746
      N    3   -0.93125      1.99966     5.91599    0.01560     7.93125
      C    4   -0.38131      1.99925     4.35818    0.02388     6.38131
      N    5   -0.38798      1.99934     5.36066    0.02799     7.38798
      H    6    0.22762      0.00000     0.76720    0.00518     0.77238
      H    7    0.22703      0.00000     0.76634    0.00663     0.77297
      H    8    0.22985      0.00000     0.76667    0.00348     0.77015
      H    9    0.21577      0.00000     0.76226    0.02197     0.78423
      H   10    0.39561      0.00000     0.60179    0.00260     0.60439
      H   11    0.38270      0.00000     0.61408    0.00323     0.61730
      H   12    0.22261      0.00000     0.75749    0.01990     0.77739
      H   13    0.26021      0.00000     0.70926    0.03053     0.73979
      H   14    0.15855      0.00000     0.75031    0.09114     0.84145
      H   15    0.16297      0.00000     0.74899    0.08804     0.83703
 =======================================================================
   * Total *   -0.00131      9.99687    31.63636    0.36807    42.00131

 1\1\GINC-CN33\SP\RB3LYP TD-FC\6-31G(d,p)\C3H10N2\QDUEZ\09-Jul-2024\0\\
 # TD(NStates=10, Root=1) B3LYP/6-31G** SCRF=(Solvent=water) volume pop
 =NPA density=current Geom=AllCheck Guess=Read\\AOHJOMMDDJHIJH-VKHMYHEA
 SA-N_conf_1\\0,1\C,0,-1.1452216991,-0.8644870384,-0.4653375213\C,0,-0.
 1525832858,0.3051427608,-0.4744691593\N,0,-0.7928333886,1.6346776634,-
 0.4705188653\C,0,0.8315277768,0.24611016,0.7035870475\N,0,1.6414237773
 ,-0.9800134108,0.6749757383\H,0,-1.8008912965,-0.8250290182,-1.3422353
 326\H,0,-0.6232669903,-1.8256242238,-0.4644640073\H,0,-1.7771880228,-0

 Normal termination of Gaussian 16 at Tue Jul  9 18:36:45 2024.
