 Gaussian 16, Revision A.03,

 -------------------------------------------------------
 # opt=CalcFc B3LYP/6-31G** SCRF=(Solvent=water) scf=xqc
 -------------------------------------------------------

 ----------------------------------
 AOHJOMMDDJHIJH-VKHMYHEASA-N_conf_0
 ----------------------------------
 Symbolic Z-matrix:
 Charge =  0 Multiplicity = 1

 SCF Done:  E(RB3LYP) =  -229.854187800     A.U. after   11 cycles
 SCF Done:  E(RB3LYP) =  -229.856598342     A.U. after    9 cycles
 SCF Done:  E(RB3LYP) =  -229.856728827     A.U. after    9 cycles
 SCF Done:  E(RB3LYP) =  -229.856738834     A.U. after    8 cycles
 SCF Done:  E(RB3LYP) =  -229.856739646     A.U. after    7 cycles
 SCF Done:  E(RB3LYP) =  -229.856739711     A.U. after    6 cycles
 Optimization completed.
    -- Stationary point found.
 Normal termination of Gaussian 16 at Tue Jul  9 18:08:35 2024.

 ----------------------------------------------------------------------
 # freq B3LYP/6-31G** SCRF=(Solvent=water) volume NMR pop=NPA density=c
 urrent Geom=AllCheck Guess=Read
 ----------------------------------------------------------------------

 Structure from the checkpoint file:  "AOHJOMMDDJHIJH-VKHMYHEASA-N_conf_0_1.chk"
 ----------------------------------
 AOHJOMMDDJHIJH-VKHMYHEASA-N_conf_0
 ----------------------------------
 Charge =  0 Multiplicity = 1

 SCF Done:  E(RB3LYP) =  -229.856739711     A.U. after    1 cycles

      1  C    Isotropic =   170.5808   Anisotropy =    33.6444

      2  C    Isotropic =   139.8526   Anisotropy =    11.0023

      3  N    Isotropic =   224.5197   Anisotropy =    38.0026

      4  C    Isotropic =   139.5925   Anisotropy =    35.0421

      5  N    Isotropic =   241.1559   Anisotropy =    41.5479

      6  H    Isotropic =    31.0972   Anisotropy =     7.3863

      7  H    Isotropic =    30.9109   Anisotropy =     8.9974

      8  H    Isotropic =    30.8311   Anisotropy =     9.2431

      9  H    Isotropic =    28.8520   Anisotropy =     7.0576

     10  H    Isotropic =    31.1954   Anisotropy =    13.4902

     11  H    Isotropic =    30.6031   Anisotropy =    13.3280

     12  H    Isotropic =    29.2396   Anisotropy =     6.3239

     13  H    Isotropic =    29.6861   Anisotropy =     5.9286

     14  H    Isotropic =    30.9094   Anisotropy =    12.2572

     15  H    Isotropic =    31.8225   Anisotropy =    14.0353

  Exact polarizability:  62.495   1.967  60.615   1.130  -0.720  54.459
 Approx polarizability:  64.727   1.479  64.546   1.075  -1.742  60.631

                      1                      2                      3
                      A                      A                      A
 Frequencies --    117.5134               222.6319               246.8882
 Red. masses --      2.1220                 1.0852                 1.0986
 Frc consts  --      0.0173                 0.0317                 0.0395
 IR Inten    --      7.2545                32.0501                51.9349

                      4                      5                      6
                      A                      A                      A
 Frequencies --    263.8782               360.1388               370.1500
 Red. masses --      2.3797                 1.1679                 2.5895
 Frc consts  --      0.0976                 0.0892                 0.2090
 IR Inten    --     13.8736                74.8643                 1.6648

                      7                      8                      9
                      A                      A                      A
 Frequencies --    474.3229               492.3034               806.4646
 Red. masses --      1.9798                 2.5878                 2.1705
 Frc consts  --      0.2624                 0.3695                 0.8317
 IR Inten    --     33.2059                 1.2503                39.0213

                     10                     11                     12
                      A                      A                      A
 Frequencies --    860.7673               906.0432               937.0291
 Red. masses --      1.4206                 1.4190                 1.4752
 Frc consts  --      0.6201                 0.6863                 0.7631
 IR Inten    --     87.7300                95.9523               215.2955

                     13                     14                     15
                      A                      A                      A
 Frequencies --    960.6044              1023.3702              1057.5988
 Red. masses --      1.6111                 1.6937                 1.3120
 Frc consts  --      0.8759                 1.0451                 0.8646
 IR Inten    --     38.6818                 2.9441                21.8607

                     16                     17                     18
                      A                      A                      A
 Frequencies --   1103.3377              1169.4153              1211.2997
 Red. masses --      2.7876                 2.0779                 1.6000
 Frc consts  --      1.9994                 1.6742                 1.3831
 IR Inten    --     15.7323                 8.5243                11.4906

                     19                     20                     21
                      A                      A                      A
 Frequencies --   1272.3188              1352.4196              1382.1799
 Red. masses --      1.2388                 1.2622                 1.3323
 Frc consts  --      1.1815                 1.3602                 1.4996
 IR Inten    --      1.3157                17.1997                12.8614

                     22                     23                     24
                      A                      A                      A
 Frequencies --   1403.4586              1416.0056              1423.8761
 Red. masses --      1.1899                 1.2559                 1.5944
 Frc consts  --      1.3809                 1.4837                 1.9045
 IR Inten    --      8.3156                14.3073                 0.7572

                     25                     26                     27
                      A                      A                      A
 Frequencies --   1485.1229              1496.7854              1506.2094
 Red. masses --      1.0884                 1.0610                 1.0555
 Frc consts  --      1.4143                 1.4005                 1.4109
 IR Inten    --      0.3916                 4.7108                 2.0788

                     28                     29                     30
                      A                      A                      A
 Frequencies --   1652.0420              1662.3640              2927.5966
 Red. masses --      1.0865                 1.0931                 1.0819
 Frc consts  --      1.7472                 1.7797                 5.4633
 IR Inten    --     75.3473                10.9817               122.9011

                     31                     32                     33
                      A                      A                      A
 Frequencies --   3029.8200              3038.4376              3076.0052
 Red. masses --      1.0563                 1.0382                 1.1059
 Frc consts  --      5.7130                 5.6471                 6.1650
 IR Inten    --     48.2426                53.1841                61.0130

                     34                     35                     36
                      A                      A                      A
 Frequencies --   3105.5619              3115.7661              3477.7781
 Red. masses --      1.1026                 1.1023                 1.0499
 Frc consts  --      6.2657                 6.3047                 7.4817
 IR Inten    --     55.4944                54.1310                 0.8837

                     37                     38                     39
                      A                      A                      A
 Frequencies --   3481.1148              3554.2820              3564.0884
 Red. masses --      1.0509                 1.0909                 1.0921
 Frc consts  --      7.5032                 8.1196                 8.1739
 IR Inten    --      2.1011                 0.2212                 0.0453

 - Thermochemistry -
 -------------------
 Temperature   298.150 Kelvin.  Pressure   1.00000 Atm.
 Atom     1 has atomic number  6 and mass  12.00000

 Molecular mass:    74.08440 amu.
 Principal axes and moments of inertia in atomic units:
                           1         2         3
     Eigenvalues --   228.39782 520.49929 682.18159
           X            0.99939   0.03483   0.00348
           Y           -0.03490   0.99908   0.02502
           Z           -0.00261  -0.02513   0.99968
 This molecule is an asymmetric top.
 Rotational symmetry number  1.
 Rotational temperatures (Kelvin)      0.37922     0.16641     0.12697
 Rotational constants (GHZ):           7.90174     3.46733     2.64554
 Zero-point vibrational energy     364902.8 (Joules/Mol)
                                   87.21387 (Kcal/Mol)
 Warning -- explicit consideration of   8 degrees of freedom as
           vibrations may cause significant error
 Vibrational temperatures:    169.08   320.32   355.22   379.66   518.16
          (Kelvin)            532.56   682.44   708.31  1160.32  1238.45
                             1303.59  1348.18  1382.10  1472.40  1521.65
                             1587.46  1682.53  1742.79  1830.58  1945.83
                             1988.65  2019.26  2037.32  2048.64  2136.76
                             2153.54  2167.10  2376.92  2391.77  4212.16
                             4359.24  4371.63  4425.69  4468.21  4482.89
                             5003.75  5008.55  5113.82  5127.93

 Zero-point correction=                           0.138984 (Hartree/Particle)
 Thermal correction to Energy=                    0.145641
 Thermal correction to Enthalpy=                  0.146585
 Thermal correction to Gibbs Free Energy=         0.109524
 Sum of electronic and zero-point Energies=           -229.717756
 Sum of electronic and thermal Energies=              -229.711099
 Sum of electronic and thermal Enthalpies=            -229.710154
 Sum of electronic and thermal Free Energies=         -229.747216

                     E (Thermal)             CV                S
                      KCal/Mol        Cal/Mol-Kelvin    Cal/Mol-Kelvin
 Total                   91.391             23.821             78.002
 Electronic               0.000              0.000              0.000
 Translational            0.889              2.981             38.824
 Rotational               0.889              2.981             25.898
 Vibrational             89.614             17.859             13.280
 Vibration     1          0.608              1.935              3.141
 Vibration     2          0.648              1.807              1.938
 Vibration     3          0.661              1.768              1.753
 Vibration     4          0.670              1.739              1.636
 Vibration     5          0.735              1.554              1.122
 Vibration     6          0.742              1.534              1.079
 Vibration     7          0.831              1.307              0.726
 Vibration     8          0.848              1.267              0.678

 Optimization completed.
    -- Stationary point found.
 Normal termination of Gaussian 16 at Tue Jul  9 18:19:38 2024.
 Gaussian 16:  EM64L-G16RevA.03 25-Dec-2016

 ----------------------------------------------------------------------
 # TD(NStates=10, Root=1) B3LYP/6-31G** SCRF=(Solvent=water) volume pop
 =NPA density=current Geom=AllCheck Guess=Read
 ----------------------------------------------------------------------

 Structure from the checkpoint file:  "AOHJOMMDDJHIJH-VKHMYHEASA-N_conf_0_2.chk"
 ----------------------------------
 AOHJOMMDDJHIJH-VKHMYHEASA-N_conf_0
 ----------------------------------
 Charge =  0 Multiplicity = 1

                         Standard orientation:
 ---------------------------------------------------------------------
 Center     Atomic      Atomic             Coordinates (Angstroms)
 Number     Number       Type             X           Y           Z
 ---------------------------------------------------------------------
      1          6           0       -1.768794   -0.690927   -0.022283
      2          6           0       -0.469591    0.033176    0.333408
      3          7           0       -0.500356    1.394858   -0.229636
      4          6           0        0.748493   -0.724453   -0.225045
      5          7           0        2.067643   -0.135590    0.035376
      6          1           0       -1.899358   -0.733251   -1.109281
      7          1           0       -1.765559   -1.714258    0.366511
      8          1           0       -2.637023   -0.175069    0.402299
      9          1           0       -0.372570    0.042908    1.435444
     10          1           0       -1.325512    1.878472    0.121332
     11          1           0        0.288051    1.923207    0.140299
     12          1           0        0.741228   -1.740907    0.188236
     13          1           0        0.632266   -0.817662   -1.312268
     14          1           0        2.133851    0.771177   -0.422295
     15          1           0        2.172967    0.043731    1.033066
 ---------------------------------------------------------------------

 SCF Done:  E(RB3LYP) =  -229.856739711     A.U. after    1 cycles

 Excitation energies and oscillator strengths:

 Excited State   1:      Singlet-A      7.0645 eV  175.50 nm  f=0.0018  <S**2>=0.000
      21 -> 22         0.69661
 This state for optimization and/or second-order correction.
 Total Energy, E(TD-HF/TD-DFT) =  -229.597124123
 Copying the excited state density for this state as the 1-particle RhoCI density.

 Excited State   2:      Singlet-A      7.4670 eV  166.04 nm  f=0.0503  <S**2>=0.000
      20 -> 22         0.67939
      21 -> 23         0.14804

 Excited State   3:      Singlet-A      8.1514 eV  152.10 nm  f=0.0198  <S**2>=0.000
      20 -> 22        -0.14360
      21 -> 23         0.67863

 Excited State   4:      Singlet-A      8.5494 eV  145.02 nm  f=0.0047  <S**2>=0.000
      20 -> 23         0.68041

 Excited State   5:      Singlet-A      8.6953 eV  142.59 nm  f=0.0995  <S**2>=0.000
      20 -> 25        -0.16096
      21 -> 24        -0.34932
      21 -> 25         0.57258

 Excited State   6:      Singlet-A      8.8140 eV  140.67 nm  f=0.0255  <S**2>=0.000
      21 -> 24         0.59805
      21 -> 25         0.34604

 Excited State   7:      Singlet-A      9.1575 eV  135.39 nm  f=0.0628  <S**2>=0.000
      20 -> 24         0.10417
      20 -> 25         0.64377
      21 -> 25         0.14872
      21 -> 27        -0.15068

 Excited State   8:      Singlet-A      9.2107 eV  134.61 nm  f=0.0193  <S**2>=0.000
      20 -> 24         0.66589
      20 -> 25        -0.12836
      21 -> 27        -0.11529

 Excited State   9:      Singlet-A      9.4222 eV  131.59 nm  f=0.0245  <S**2>=0.000
      20 -> 24        -0.16578
      20 -> 25        -0.14493
      20 -> 27        -0.17661
      21 -> 26         0.47309
      21 -> 27        -0.42852

 Excited State  10:      Singlet-A      9.5215 eV  130.22 nm  f=0.1155  <S**2>=0.000
      20 -> 27         0.25219
      21 -> 26         0.49386
      21 -> 27         0.41123

 The electronic state is 1-A.
 Alpha  occ. eigenvalues --  -14.31192 -14.30873 -10.20605 -10.19953 -10.17145
 Alpha  occ. eigenvalues --   -0.89323  -0.85637  -0.73722  -0.65650  -0.56845
 Alpha  occ. eigenvalues --   -0.49849  -0.47745  -0.45204  -0.43781  -0.38474
 Alpha  occ. eigenvalues --   -0.36929  -0.36012  -0.35007  -0.34327  -0.24561
 Alpha  occ. eigenvalues --   -0.23012
 Alpha virt. eigenvalues --    0.07363   0.10670   0.13218   0.13400   0.15642
 Alpha virt. eigenvalues --    0.16047   0.18228   0.18827   0.20096   0.20901
 Alpha virt. eigenvalues --    0.24786   0.25425   0.26808   0.27774   0.52729

 Mulliken charges:
               1
     1  C   -0.315815
     2  C    0.039388
     3  N   -0.327874
     4  C   -0.066304
     5  N   -0.312322
     6  H    0.124244
     7  H    0.101681
     8  H    0.112610
     9  H    0.087262
    10  H    0.137153
    11  H    0.019489
    12  H    0.116599
    13  H    0.132454
    14  H    0.057880
    15  H    0.093554
 Sum of Mulliken charges =   0.00000

 Dipole moment (field-independent basis, Debye):
    X=             -1.7237    Y=             -1.2656    Z=              0.6123  Tot=              2.2244
 Quadrupole moment (field-independent basis, Debye-Ang):
   XX=            -37.1679   YY=            -35.8364   ZZ=            -34.7194
   XY=             -0.2790   XZ=             -0.1775   YZ=              1.0487

 Summary of Natural Population Analysis:

                                       Natural Population
                Natural  -----------------------------------------------
    Atom  No    Charge         Core      Valence    Rydberg      Total
 -----------------------------------------------------------------------
      C    1   -0.70980      1.99941     4.70009    0.01031     6.70980
      C    2   -0.09533      1.99915     4.08060    0.01558     6.09533
      N    3   -0.67516      1.99946     5.65754    0.01816     7.67516
      C    4   -0.32753      1.99929     4.30834    0.01990     6.32753
      N    5   -0.64812      1.99952     5.62961    0.01900     7.64812
      H    6    0.24426      0.00000     0.75394    0.00180     0.75574
      H    7    0.22729      0.00000     0.76633    0.00638     0.77271
      H    8    0.24372      0.00000     0.74986    0.00642     0.75628
      H    9    0.23142      0.00000     0.73831    0.03027     0.76858
      H   10    0.29718      0.00000     0.66277    0.04005     0.70282
      H   11    0.20569      0.00000     0.72399    0.07032     0.79431
      H   12    0.24278      0.00000     0.74461    0.01261     0.75722
      H   13    0.25440      0.00000     0.73823    0.00737     0.74560
      H   14    0.23813      0.00000     0.69919    0.06268     0.76187
      H   15    0.27110      0.00000     0.66927    0.05964     0.72890
 =======================================================================
   * Total *   -0.00000      9.99682    31.62268    0.38050    42.00000

 1\1\GINC-CN33\SP\RB3LYP TD-FC\6-31G(d,p)\C3H10N2\QDUEZ\09-Jul-2024\0\\
 # TD(NStates=10, Root=1) B3LYP/6-31G** SCRF=(Solvent=water) volume pop
 =NPA density=current Geom=AllCheck Guess=Read\\AOHJOMMDDJHIJH-VKHMYHEA
 SA-N_conf_0\\0,1\C,0,-1.2874002331,-1.1884492325,-0.1995751968\C,0,-0.
 2343574126,-0.2092716759,0.3210789553\N,0,-0.8656773427,1.0990629752,0
 .5697507409\C,0,0.906957012,-0.0416485058,-0.6981882747\N,0,1.98865505
 73,0.8803801168,-0.3314072704\H,0,-1.7443366703,-0.8072732423,-1.11952
 93005\H,0,-0.8418878646,-2.1653834788,-0.4128752746\H,0,-2.0848180458,

 Normal termination of Gaussian 16 at Tue Jul  9 18:37:55 2024.
