 Gaussian 16, Revision A.03,

 -------------------------------------------------------
 # opt=CalcFc B3LYP/6-31G** SCRF=(Solvent=water) scf=xqc
 -------------------------------------------------------

 ----------------------------------
 XTBLDMQMUSHDEN-UHFFFAOYSA-N_conf_0
 ----------------------------------
 Symbolic Z-matrix:
 Charge =  0 Multiplicity = 1

 SCF Done:  E(RB3LYP) =  -496.626868027     A.U. after   12 cycles
 SCF Done:  E(RB3LYP) =  -496.633122916     A.U. after   11 cycles
 SCF Done:  E(RB3LYP) =  -496.633658233     A.U. after   10 cycles
 SCF Done:  E(RB3LYP) =  -496.633687084     A.U. after    9 cycles
 SCF Done:  E(RB3LYP) =  -496.633689772     A.U. after    7 cycles
 Optimization completed.
    -- Stationary point found.
 Normal termination of Gaussian 16 at Thu Jul 11 19:32:34 2024.

 ----------------------------------------------------------------------
 # freq B3LYP/6-31G** SCRF=(Solvent=water) volume NMR pop=NPA density=c
 urrent Geom=AllCheck Guess=Read
 ----------------------------------------------------------------------

 Structure from the checkpoint file:  "XTBLDMQMUSHDEN-UHFFFAOYSA-N_conf_0_1.chk"
 ----------------------------------
 XTBLDMQMUSHDEN-UHFFFAOYSA-N_conf_0
 ----------------------------------
 Charge =  0 Multiplicity = 1

 SCF Done:  E(RB3LYP) =  -496.633689772     A.U. after    1 cycles

      1  N    Isotropic =   205.0829   Anisotropy =    42.9083

      2  C    Isotropic =    59.1575   Anisotropy =   142.9653

      3  C    Isotropic =    59.1575   Anisotropy =   142.9653

      4  N    Isotropic =   205.0829   Anisotropy =    42.9083

      5  C    Isotropic =    85.8263   Anisotropy =   102.6575

      6  C    Isotropic =    67.3550   Anisotropy =   187.7107

      7  C    Isotropic =    71.0154   Anisotropy =   144.1450

      8  C    Isotropic =    74.1500   Anisotropy =   159.2186

      9  C    Isotropic =    74.1500   Anisotropy =   159.2186

     10  C    Isotropic =    71.0154   Anisotropy =   144.1450

     11  C    Isotropic =    67.3550   Anisotropy =   187.7107

     12  C    Isotropic =    85.8263   Anisotropy =   102.6575

     13  H    Isotropic =    28.4900   Anisotropy =    13.0729

     14  H    Isotropic =    28.7211   Anisotropy =    10.9175

     15  H    Isotropic =    28.7211   Anisotropy =    10.9175

     16  H    Isotropic =    28.4900   Anisotropy =    13.0729

     17  H    Isotropic =    24.8228   Anisotropy =     7.7051

     18  H    Isotropic =    24.2030   Anisotropy =     7.0281

     19  H    Isotropic =    24.4294   Anisotropy =     4.7399

     20  H    Isotropic =    24.4294   Anisotropy =     4.7399

     21  H    Isotropic =    24.2030   Anisotropy =     7.0281

     22  H    Isotropic =    24.8228   Anisotropy =     7.7051

  Exact polarizability: 286.343   0.000 176.358  -0.000  -1.073  50.264
 Approx polarizability: 345.644   0.000 219.076  -0.000  -2.696  64.746

                      1                      2                      3
                      A                      A                      A
 Frequencies --    121.7645               126.0198               248.2037
 Red. masses --      3.8891                 4.7127                 1.1585
 Frc consts  --      0.0340                 0.0441                 0.0420
 IR Inten    --      0.0036                 4.7448                55.8193

                      4                      5                      6
                      A                      A                      A
 Frequencies --    274.2082               283.4503               320.2942
 Red. masses --      3.8843                 3.3411                 3.5979
 Frc consts  --      0.1721                 0.1582                 0.2175
 IR Inten    --      0.3618                 3.6200                 0.0000

                      7                      8                      9
                      A                      A                      A
 Frequencies --    336.5684               420.8886               435.8468
 Red. masses --      3.5381                 4.9871                 2.9477
 Frc consts  --      0.2361                 0.5205                 0.3299
 IR Inten    --      3.2145                 3.5045                16.5270

                     10                     11                     12
                      A                      A                      A
 Frequencies --    449.8231               465.6674               485.6334
 Red. masses --      5.7708                 1.0761                 2.8267
 Frc consts  --      0.6880                 0.1375                 0.3928
 IR Inten    --      0.0357                31.9816                 5.4230

                     13                     14                     15
                      A                      A                      A
 Frequencies --    563.1977               566.3854               633.4971
 Red. masses --      3.6550                 3.8593                 6.4708
 Frc consts  --      0.6831                 0.7294                 1.5300
 IR Inten    --     14.2883                 7.4218                60.5195

                     16                     17                     18
                      A                      A                      A
 Frequencies --    665.4919               676.8054               735.3160
 Red. masses --      3.6816                 2.4714                 1.5013
 Frc consts  --      0.9607                 0.6670                 0.4782
 IR Inten    --    101.2694               285.7696               215.4330

                     19                     20                     21
                      A                      A                      A
 Frequencies --    753.2283               759.5672               763.8022
 Red. masses --      3.6246                 5.0327                 1.3071
 Frc consts  --      1.2116                 1.7107                 0.4493
 IR Inten    --    115.6820                77.7592                 7.3440

                     22                     23                     24
                      A                      A                      A
 Frequencies --    771.9540               845.1070               855.2420
 Red. masses --      2.0771                 1.3185                 2.8651
 Frc consts  --      0.7293                 0.5548                 1.2347
 IR Inten    --    517.6169                18.4638                 1.1371

                     25                     26                     27
                      A                      A                      A
 Frequencies --    862.3339               876.8227               923.0473
 Red. masses --      1.4456                 1.5277                 5.1824
 Frc consts  --      0.6333                 0.6920                 2.6015
 IR Inten    --    110.4318                 0.4911                 0.2763

                     28                     29                     30
                      A                      A                      A
 Frequencies --    951.7855               984.3436              1046.9643
 Red. masses --      1.3440                 1.2475                 2.2860
 Frc consts  --      0.7173                 0.7122                 1.4763
 IR Inten    --      4.7363                 0.0049                 8.8951

                     31                     32                     33
                      A                      A                      A
 Frequencies --   1121.5665              1131.6914              1144.6586
 Red. masses --      1.8119                 1.3208                 1.6222
 Frc consts  --      1.3429                 0.9966                 1.2523
 IR Inten    --      1.0659                 8.3045                 0.5097

                     34                     35                     36
                      A                      A                      A
 Frequencies --   1178.4532              1210.1138              1220.6179
 Red. masses --      1.1028                 1.4958                 1.6159
 Frc consts  --      0.9024                 1.2906                 1.4185
 IR Inten    --      1.9139                33.5082                 9.4646

                     37                     38                     39
                      A                      A                      A
 Frequencies --   1290.8327              1308.7767              1314.7347
 Red. masses --      1.9324                 2.1206                 3.6397
 Frc consts  --      1.8971                 2.1402                 3.7067
 IR Inten    --      2.8097                10.1227               233.3167

                     40                     41                     42
                      A                      A                      A
 Frequencies --   1394.4448              1403.9636              1449.7422
 Red. masses --      1.8191                 7.2990                 3.1563
 Frc consts  --      2.0841                 8.4767                 3.9085
 IR Inten    --      0.7978                 9.6258                43.3506

                     43                     44                     45
                      A                      A                      A
 Frequencies --   1498.1188              1523.3391              1560.5663
 Red. masses --      2.8780                 2.9724                 3.7497
 Frc consts  --      3.8056                 4.0639                 5.3804
 IR Inten    --      2.2489               234.7414               202.3235

                     46                     47                     48
                      A                      A                      A
 Frequencies --   1623.1903              1625.6626              1661.8007
 Red. masses --      6.4350                 1.3322                 4.7715
 Frc consts  --      9.9894                 2.0744                 7.7636
 IR Inten    --      2.1284                54.3100                 6.9668

                     49                     50                     51
                      A                      A                      A
 Frequencies --   1663.1395              1688.8741              3168.7223
 Red. masses --      1.1212                 4.0944                 1.0882
 Frc consts  --      1.8271                 6.8808                 6.4376
 IR Inten    --     77.4360                78.0884                 5.1715

                     52                     53                     54
                      A                      A                      A
 Frequencies --   3170.4661              3170.6675              3174.2583
 Red. masses --      1.0878                 1.0901                 1.0884
 Frc consts  --      6.4423                 6.4570                 6.4614
 IR Inten    --     62.4125                 7.4756                 5.7426

                     55                     56                     57
                      A                      A                      A
 Frequencies --   3187.5258              3201.4737              3525.9610
 Red. masses --      1.0928                 1.0974                 1.0503
 Frc consts  --      6.5417                 6.6271                 7.6935
 IR Inten    --     60.3086                57.1523                13.8260

                     58                     59                     60
                      A                      A                      A
 Frequencies --   3529.3081              3630.8602              3633.3761
 Red. masses --      1.0498                 1.0953                 1.0959
 Frc consts  --      7.7041                 8.5074                 8.5243
 IR Inten    --     36.1101                48.0257                 2.6182

 - Thermochemistry -
 -------------------
 Temperature   298.150 Kelvin.  Pressure   1.00000 Atm.
 Atom     1 has atomic number  7 and mass  14.00307

 Molecular mass:   158.08440 amu.
 Principal axes and moments of inertia in atomic units:
                           1         2         3
     Eigenvalues --   803.825382702.429423500.75811
           X            1.00000  -0.00000  -0.00000
           Y            0.00000   0.99998   0.00650
           Z            0.00000  -0.00650   0.99998
 This molecule is an asymmetric top.
 Rotational symmetry number  1.
 Warning -- assumption of classical behavior for rotation
           may cause significant error
 Rotational temperatures (Kelvin)      0.10775     0.03205     0.02474
 Rotational constants (GHZ):           2.24519     0.66782     0.51553
 Zero-point vibrational energy     476174.5 (Joules/Mol)
                                  113.80845 (Kcal/Mol)
 Warning -- explicit consideration of  14 degrees of freedom as
           vibrations may cause significant error
 Vibrational temperatures:    175.19   181.31   357.11   394.52   407.82
          (Kelvin)            460.83   484.25   605.56   627.09   647.20
                              669.99   698.72   810.32   814.90   911.46
                              957.49   973.77  1057.96  1083.73  1092.85
                             1098.94  1110.67  1215.92  1230.50  1240.71
                             1261.55  1328.06  1369.41  1416.25  1506.35
                             1613.68  1628.25  1646.91  1695.53  1741.08
                             1756.20  1857.22  1883.04  1891.61  2006.29
                             2019.99  2085.86  2155.46  2191.75  2245.31
                             2335.41  2338.97  2390.96  2392.89  2429.91
                             4559.08  4561.59  4561.88  4567.05  4586.14
                             4606.21  5073.07  5077.89  5224.00  5227.62

 Zero-point correction=                           0.181365 (Hartree/Particle)
 Thermal correction to Energy=                    0.190872
 Thermal correction to Enthalpy=                  0.191816
 Thermal correction to Gibbs Free Energy=         0.147251
 Sum of electronic and zero-point Energies=           -496.452324
 Sum of electronic and thermal Energies=              -496.442818
 Sum of electronic and thermal Enthalpies=            -496.441874
 Sum of electronic and thermal Free Energies=         -496.486438

                     E (Thermal)             CV                S
                      KCal/Mol        Cal/Mol-Kelvin    Cal/Mol-Kelvin
 Total                  119.774             39.993             93.794
 Electronic               0.000              0.000              0.000
 Translational            0.889              2.981             41.083
 Rotational               0.889              2.981             30.409
 Vibrational            117.996             34.031             22.302
 Vibration     1          0.609              1.931              3.072
 Vibration     2          0.611              1.927              3.006
 Vibration     3          0.662              1.766              1.743
 Vibration     4          0.677              1.721              1.570
 Vibration     5          0.682              1.704              1.513
 Vibration     6          0.706              1.635              1.309
 Vibration     7          0.717              1.602              1.228
 Vibration     8          0.783              1.425              0.889
 Vibration     9          0.796              1.392              0.840
 Vibration    10          0.809              1.361              0.796
 Vibration    11          0.823              1.326              0.750
 Vibration    12          0.842              1.282              0.695
 Vibration    13          0.919              1.111              0.517
 Vibration    14          0.922              1.104              0.511

 Optimization completed.
    -- Stationary point found.
 Normal termination of Gaussian 16 at Thu Jul 11 19:59:22 2024.
 Gaussian 16:  EM64L-G16RevA.03 25-Dec-2016

 ----------------------------------------------------------------------
 # TD(NStates=10, Root=1) B3LYP/6-31G** SCRF=(Solvent=water) volume pop
 =NPA density=current Geom=AllCheck Guess=Read
 ----------------------------------------------------------------------

 Structure from the checkpoint file:  "XTBLDMQMUSHDEN-UHFFFAOYSA-N_conf_0_2.chk"
 ----------------------------------
 XTBLDMQMUSHDEN-UHFFFAOYSA-N_conf_0
 ----------------------------------
 Charge =  0 Multiplicity = 1

                         Standard orientation:
 ---------------------------------------------------------------------
 Center     Atomic      Atomic             Coordinates (Angstroms)
 Number     Number       Type             X           Y           Z
 ---------------------------------------------------------------------
      1          7           0       -2.963580    1.365373   -0.036975
      2          6           0       -1.719688    0.720278    0.004125
      3          6           0       -1.719688   -0.720278   -0.004125
      4          7           0       -2.963580   -1.365373    0.036975
      5          6           0       -0.518634   -1.400096    0.009951
      6          6           0        0.727087   -0.716722    0.013481
      7          6           0        1.971691   -1.401403    0.024377
      8          6           0        3.164455   -0.707802    0.011870
      9          6           0        3.164455    0.707802   -0.011870
     10          6           0        1.971691    1.401403   -0.024377
     11          6           0        0.727087    0.716722   -0.013481
     12          6           0       -0.518634    1.400096   -0.009951
     13          1           0       -2.906574    2.361463    0.140142
     14          1           0       -3.652126    0.941770    0.577373
     15          1           0       -3.652126   -0.941770   -0.577373
     16          1           0       -2.906574   -2.361463   -0.140143
     17          1           0       -0.522604   -2.487810    0.004744
     18          1           0        1.969449   -2.488640    0.042206
     19          1           0        4.107452   -1.246861    0.020330
     20          1           0        4.107452    1.246861   -0.020330
     21          1           0        1.969449    2.488640   -0.042206
     22          1           0       -0.522604    2.487810   -0.004744
 ---------------------------------------------------------------------

 SCF Done:  E(RB3LYP) =  -496.633689772     A.U. after    1 cycles

 Excitation energies and oscillator strengths:

 Excited State   1:      Singlet-A      3.9969 eV  310.20 nm  f=0.2372  <S**2>=0.000
      41 -> 43         0.64925
      42 -> 44         0.27612
 This state for optimization and/or second-order correction.
 Total Energy, E(TD-HF/TD-DFT) =  -496.486807755
 Copying the excited state density for this state as the 1-particle RhoCI density.

 Excited State   2:      Singlet-A      4.1454 eV  299.09 nm  f=0.0682  <S**2>=0.000
      41 -> 44        -0.12502
      42 -> 43         0.69216

 Excited State   3:      Singlet-A      5.0397 eV  246.01 nm  f=1.4999  <S**2>=0.000
      39 -> 43        -0.11463
      41 -> 43        -0.27726
      42 -> 44         0.63821

 Excited State   4:      Singlet-A      5.1444 eV  241.01 nm  f=0.2876  <S**2>=0.000
      41 -> 44         0.68799
      42 -> 43         0.11608

 Excited State   5:      Singlet-A      5.6493 eV  219.47 nm  f=0.0466  <S**2>=0.000
      40 -> 43         0.41523
      42 -> 45         0.56191

 Excited State   6:      Singlet-A      5.6853 eV  218.08 nm  f=0.0113  <S**2>=0.000
      40 -> 44        -0.19882
      41 -> 45         0.67243

 Excited State   7:      Singlet-A      6.1487 eV  201.64 nm  f=0.0261  <S**2>=0.000
      40 -> 43         0.55848
      42 -> 45        -0.40988

 Excited State   8:      Singlet-A      6.1696 eV  200.96 nm  f=0.2358  <S**2>=0.000
      39 -> 43         0.64492
      40 -> 44         0.23015
      42 -> 44         0.11386

 Excited State   9:      Singlet-A      6.5972 eV  187.94 nm  f=0.0154  <S**2>=0.000
      41 -> 46         0.69537

 Excited State  10:      Singlet-A      6.7509 eV  183.65 nm  f=0.0012  <S**2>=0.000
      40 -> 44         0.13446
      42 -> 46         0.68223

 The electronic state is 1-A.
 Alpha  occ. eigenvalues --  -14.33953 -14.33953 -10.22708 -10.22669 -10.19104
 Alpha  occ. eigenvalues --  -10.19062 -10.18359 -10.18354 -10.18278 -10.18237
 Alpha  occ. eigenvalues --  -10.18024 -10.18024  -0.93541  -0.89069  -0.85737
 Alpha  occ. eigenvalues --   -0.79609  -0.76130  -0.71706  -0.70507  -0.62507
 Alpha  occ. eigenvalues --   -0.59988  -0.59320  -0.53342  -0.51678  -0.50603
 Alpha  occ. eigenvalues --   -0.48046  -0.47902  -0.44413  -0.43220  -0.42671
 Alpha  occ. eigenvalues --   -0.40827  -0.40794  -0.39394  -0.36764  -0.35712
 Alpha  occ. eigenvalues --   -0.33886  -0.32577  -0.31806  -0.27990  -0.26775
 Alpha  occ. eigenvalues --   -0.19821  -0.19791
 Alpha virt. eigenvalues --   -0.02693   0.00589   0.03863   0.07959   0.10764
 Alpha virt. eigenvalues --    0.11106   0.11516   0.13513   0.13672   0.15853
 Alpha virt. eigenvalues --    0.16009   0.18157   0.18553   0.20814   0.21652

 Mulliken charges:
               1
     1  N   -0.651857
     2  C    0.244224
     3  C    0.244224
     4  N   -0.651857
     5  C   -0.218449
     6  C    0.105235
     7  C   -0.191834
     8  C   -0.119371
     9  C   -0.119371
    10  C   -0.191834
    11  C    0.105235
    12  C   -0.218449
    13  H    0.293898
    14  H    0.294924
    15  H    0.294924
    16  H    0.293898
    17  H    0.090294
    18  H    0.072403
    19  H    0.080532
    20  H    0.080532
    21  H    0.072403
    22  H    0.090294
 Sum of Mulliken charges =  -0.00000

 Dipole moment (field-independent basis, Debye):
    X=             -6.9089    Y=             -0.0000    Z=              0.0000  Tot=              6.9089
 Quadrupole moment (field-independent basis, Debye-Ang):
   XX=            -53.4487   YY=            -57.4058   ZZ=            -74.9774
   XY=              0.0000   XZ=             -0.0000   YZ=              3.2766

 Summary of Natural Population Analysis:

                                       Natural Population
                Natural  -----------------------------------------------
    Atom  No    Charge         Core      Valence    Rydberg      Total
 -----------------------------------------------------------------------
      N    1   -0.79636      1.99951     5.78463    0.01222     7.79636
      C    2    0.13861      1.99894     3.84455    0.01791     5.86139
      C    3    0.13861      1.99894     3.84455    0.01791     5.86139
      N    4   -0.79636      1.99951     5.78463    0.01222     7.79636
      C    5   -0.30552      1.99902     4.29237    0.01413     6.30552
      C    6   -0.02795      1.99903     4.01393    0.01498     6.02795
      C    7   -0.30689      1.99908     4.29258    0.01523     6.30689
      C    8   -0.25441      1.99912     4.23993    0.01536     6.25441
      C    9   -0.25441      1.99912     4.23993    0.01536     6.25441
      C   10   -0.30689      1.99908     4.29258    0.01523     6.30689
      C   11   -0.02795      1.99903     4.01393    0.01498     6.02795
      C   12   -0.30552      1.99902     4.29237    0.01413     6.30552
      H   13    0.42422      0.00000     0.57326    0.00253     0.57578
      H   14    0.42098      0.00000     0.57549    0.00352     0.57902
      H   15    0.42098      0.00000     0.57549    0.00352     0.57902
      H   16    0.42422      0.00000     0.57326    0.00253     0.57578
      H   17    0.23986      0.00000     0.75841    0.00173     0.76014
      H   18    0.23172      0.00000     0.76664    0.00164     0.76828
      H   19    0.23574      0.00000     0.76279    0.00147     0.76426
      H   20    0.23574      0.00000     0.76279    0.00147     0.76426
      H   21    0.23172      0.00000     0.76664    0.00164     0.76828
      H   22    0.23986      0.00000     0.75841    0.00173     0.76014
 =======================================================================
   * Total *   -0.00000     23.98939    59.80917    0.20144    84.00000

 Normal termination of Gaussian 16 at Thu Jul 11 20:34:57 2024.
