 Gaussian 16, Revision A.03,

 -------------------------------------------------------
 # opt=CalcFc B3LYP/6-31G** SCRF=(Solvent=water) scf=xqc
 -------------------------------------------------------

 ----------------------------------
 HLBLWEWZXPIGSM-UHFFFAOYSA-N_conf_0
 ----------------------------------
 Symbolic Z-matrix:
 Charge =  0 Multiplicity = 1

 SCF Done:  E(RB3LYP) =  -649.251079457     A.U. after   12 cycles
 SCF Done:  E(RB3LYP) =  -649.254170886     A.U. after   10 cycles
 SCF Done:  E(RB3LYP) =  -649.254268311     A.U. after   10 cycles
 SCF Done:  E(RB3LYP) =  -649.254269096     A.U. after    8 cycles
 SCF Done:  E(RB3LYP) =  -649.254269143     A.U. after    7 cycles
 SCF Done:  E(RB3LYP) =  -649.254269152     A.U. after    6 cycles
 Optimization completed.
    -- Stationary point found.
 Normal termination of Gaussian 16 at Wed Jul 17 19:33:09 2024.

 ----------------------------------------------------------------------
 # freq B3LYP/6-31G** SCRF=(Solvent=water) volume NMR pop=NPA density=c
 urrent Geom=AllCheck Guess=Read
 ----------------------------------------------------------------------

 Structure from the checkpoint file:  "HLBLWEWZXPIGSM-UHFFFAOYSA-N_conf_0_1.chk"
 ----------------------------------
 HLBLWEWZXPIGSM-UHFFFAOYSA-N_conf_0
 ----------------------------------
 Charge =  0 Multiplicity = 1

 SCF Done:  E(RB3LYP) =  -649.254269152     A.U. after    1 cycles

      1  N    Isotropic =   201.8944   Anisotropy =    74.4444

      2  C    Isotropic =    54.1321   Anisotropy =   156.7774

      3  C    Isotropic =    81.8052   Anisotropy =   130.5378

      4  C    Isotropic =    76.0249   Anisotropy =   141.0403

      5  C    Isotropic =    47.2083   Anisotropy =   107.7414

      6  O    Isotropic =   195.6958   Anisotropy =    68.6837

      7  C    Isotropic =    47.1861   Anisotropy =   107.6691

      8  C    Isotropic =    76.1134   Anisotropy =   140.9712

      9  C    Isotropic =    81.8255   Anisotropy =   130.3414

     10  C    Isotropic =    54.1332   Anisotropy =   156.7319

     11  N    Isotropic =   201.9381   Anisotropy =    73.8863

     12  C    Isotropic =    81.6250   Anisotropy =   130.2702

     13  C    Isotropic =    77.8772   Anisotropy =   150.0810

     14  C    Isotropic =    77.9825   Anisotropy =   150.0550

     15  C    Isotropic =    81.5958   Anisotropy =   130.0805

     16  H    Isotropic =    28.7004   Anisotropy =    12.1532

     17  H    Isotropic =    28.7265   Anisotropy =    12.1112

     18  H    Isotropic =    25.0991   Anisotropy =     5.1987

     19  H    Isotropic =    24.7917   Anisotropy =     5.7050

     20  H    Isotropic =    24.7880   Anisotropy =     5.7057

     21  H    Isotropic =    25.1007   Anisotropy =     5.1885

     22  H    Isotropic =    28.7365   Anisotropy =    12.1128

     23  H    Isotropic =    28.7116   Anisotropy =    12.3094

     24  H    Isotropic =    25.1952   Anisotropy =     5.9518

     25  H    Isotropic =    25.0803   Anisotropy =     9.2246

     26  H    Isotropic =    25.0335   Anisotropy =     9.2093

     27  H    Isotropic =    25.1780   Anisotropy =     5.9324

  Exact polarizability: 282.230  -0.868 159.340 -26.800   0.246 122.692
 Approx polarizability: 309.218   0.179 205.579 -34.160  -0.665 155.288

                      1                      2                      3
                      A                      A                      A
 Frequencies --     15.9834                35.2841                61.7570
 Red. masses --      4.4820                 3.8688                 4.6239
 Frc consts  --      0.0007                 0.0028                 0.0104
 IR Inten    --      3.2476                 1.4923                 1.3500

                      4                      5                      6
                      A                      A                      A
 Frequencies --    141.4604               160.3519               269.0648
 Red. masses --      5.2524                 5.0363                 5.1701
 Frc consts  --      0.0619                 0.0763                 0.2205
 IR Inten    --      4.1992                 2.8415                 3.0081

                      7                      8                      9
                      A                      A                      A
 Frequencies --    289.9383               293.5426               305.5697
 Red. masses --      1.0458                 1.0470                 5.0766
 Frc consts  --      0.0518                 0.0532                 0.2793
 IR Inten    --     36.7800                36.1981                 2.2219

                     10                     11                     12
                      A                      A                      A
 Frequencies --    341.5728               366.1465               401.3860
 Red. masses --      5.2005                 4.8257                 3.3234
 Frc consts  --      0.3575                 0.3812                 0.3155
 IR Inten    --      7.1995                 8.2901                 1.4615

                     13                     14                     15
                      A                      A                      A
 Frequencies --    424.0218               427.2523               433.5434
 Red. masses --      3.1966                 3.1937                 3.9638
 Frc consts  --      0.3386                 0.3435                 0.4390
 IR Inten    --      3.8051                 0.6697                12.1978

                     16                     17                     18
                      A                      A                      A
 Frequencies --    500.6239               506.4810               518.1684
 Red. masses --      2.8551                 7.1014                 2.1940
 Frc consts  --      0.4216                 1.0733                 0.3471
 IR Inten    --     61.9513                 1.0316                82.8464

                     19                     20                     21
                      A                      A                      A
 Frequencies --    587.2922               635.4687               638.8925
 Red. masses --      3.6665                 1.7806                 1.5665
 Frc consts  --      0.7451                 0.4237                 0.3767
 IR Inten    --     59.5846               351.9931               660.6436

                     22                     23                     24
                      A                      A                      A
 Frequencies --    654.3638               654.4991               707.4239
 Red. masses --      5.2073                 4.6594                 4.2318
 Frc consts  --      1.3137                 1.1760                 1.2478
 IR Inten    --     24.8106                29.6782                30.4150

                     25                     26                     27
                      A                      A                      A
 Frequencies --    715.1925               756.9925               813.4716
 Red. masses --      3.6782                 3.9900                 3.0086
 Frc consts  --      1.1085                 1.3471                 1.1730
 IR Inten    --     42.1083                11.6131                 6.9745

                     28                     29                     30
                      A                      A                      A
 Frequencies --    819.2360               819.7312               835.9838
 Red. masses --      1.3069                 1.2939                 1.8500
 Frc consts  --      0.5168                 0.5122                 0.7617
 IR Inten    --      2.0488                 0.6076               102.8672

                     31                     32                     33
                      A                      A                      A
 Frequencies --    845.3878               858.2019               887.7144
 Red. masses --      2.1074                 3.7384                 6.6872
 Frc consts  --      0.8874                 1.6222                 3.1049
 IR Inten    --     65.8802                27.6927                46.1497

                     34                     35                     36
                      A                      A                      A
 Frequencies --    936.1259               938.9224               945.5005
 Red. masses --      1.2776                 1.2886                 1.3051
 Frc consts  --      0.6596                 0.6693                 0.6874
 IR Inten    --      0.8464                 0.9123                 0.3810

                     37                     38                     39
                      A                      A                      A
 Frequencies --    947.3707              1024.7015              1024.9528
 Red. masses --      1.3046                 2.6411                 2.5866
 Frc consts  --      0.6899                 1.6339                 1.6010
 IR Inten    --      0.0052                 4.1417                11.6111

                     40                     41                     42
                      A                      A                      A
 Frequencies --   1093.0459              1094.7134              1150.2776
 Red. masses --      1.4330                 1.4154                 1.1836
 Frc consts  --      1.0087                 0.9994                 0.9227
 IR Inten    --      5.5858                 5.3202                24.9309

                     43                     44                     45
                      A                      A                      A
 Frequencies --   1151.1702              1183.9932              1189.6417
 Red. masses --      1.1772                 1.2606                 1.1267
 Frc consts  --      0.9191                 1.0412                 0.9395
 IR Inten    --     20.0853                 0.3481                 0.7085

                     46                     47                     48
                      A                      A                      A
 Frequencies --   1226.2526              1255.9343              1307.3626
 Red. masses --      2.7346                 3.5257                 3.4054
 Frc consts  --      2.4227                 3.2766                 3.4293
 IR Inten    --     18.2601               969.5904                29.3183

                     49                     50                     51
                      A                      A                      A
 Frequencies --   1315.2711              1319.5514              1337.7302
 Red. masses --      4.6364                 1.9025                 1.5404
 Frc consts  --      4.7257                 1.9518                 1.6242
 IR Inten    --      5.1999                 6.2740                 0.1353

                     52                     53                     54
                      A                      A                      A
 Frequencies --   1362.0238              1366.6168              1474.2714
 Red. masses --      2.6487                 3.8703                 2.9779
 Frc consts  --      2.8950                 4.2589                 3.8134
 IR Inten    --     30.6000                13.6958                 6.0892

                     55                     56                     57
                      A                      A                      A
 Frequencies --   1482.1256              1540.1034              1553.8424
 Red. masses --      3.0658                 2.5111                 2.6948
 Frc consts  --      3.9679                 3.5093                 3.8334
 IR Inten    --      0.9315               752.7181                89.3393

                     58                     59                     60
                      A                      A                      A
 Frequencies --   1630.4137              1640.1095              1655.5162
 Red. masses --      6.3608                 6.6022                 1.4351
 Frc consts  --      9.9623                10.4637                 2.3174
 IR Inten    --      1.2333                 0.1718                56.3883

                     61                     62                     63
                      A                      A                      A
 Frequencies --   1657.4463              1670.0767              1674.2988
 Red. masses --      1.2656                 2.8207                 3.9302
 Frc consts  --      2.0484                 4.6353                 6.4913
 IR Inten    --     30.6117                94.7399                30.5428

                     64                     65                     66
                      A                      A                      A
 Frequencies --   3180.7977              3181.1093              3181.8270
 Red. masses --      1.0891                 1.0892                 1.0887
 Frc consts  --      6.4920                 6.4938                 6.4940
 IR Inten    --     29.0323                27.1856                35.0620

                     67                     68                     69
                      A                      A                      A
 Frequencies --   3182.1404              3206.3839              3206.5848
 Red. masses --      1.0886                 1.0938                 1.0939
 Frc consts  --      6.4947                 6.6255                 6.6272
 IR Inten    --     19.0369                13.1336                19.0145

                     70                     71                     72
                      A                      A                      A
 Frequencies --   3210.2229              3210.3542              3554.1840
 Red. masses --      1.0933                 1.0929                 1.0488
 Frc consts  --      6.6386                 6.6365                 7.8059
 IR Inten    --     13.8954                 1.4900                28.1680

                     73                     74                     75
                      A                      A                      A
 Frequencies --   3554.9013              3653.7376              3654.3096
 Red. masses --      1.0488                 1.0976                 1.0976
 Frc consts  --      7.8092                 8.6329                 8.6355
 IR Inten    --     25.3780                20.6205                20.3473

 - Thermochemistry -
 -------------------
 Temperature   298.150 Kelvin.  Pressure   1.00000 Atm.
 Atom     1 has atomic number  7 and mass  14.00307

 Molecular mass:   200.09496 amu.
 Principal axes and moments of inertia in atomic units:
                           1         2         3
     Eigenvalues --   949.729946990.184657381.49068
           X            0.99999  -0.00200  -0.00249
           Y            0.00203   0.99995   0.00976
           Z            0.00247  -0.00977   0.99995
 This molecule is an asymmetric top.
 Rotational symmetry number  1.
 Warning -- assumption of classical behavior for rotation
           may cause significant error
 Rotational temperatures (Kelvin)      0.09120     0.01239     0.01173
 Rotational constants (GHZ):           1.90027     0.25818     0.24450
 Zero-point vibrational energy     573297.8 (Joules/Mol)
                                  137.02147 (Kcal/Mol)
 Warning -- explicit consideration of  19 degrees of freedom as
           vibrations may cause significant error
 Vibrational temperatures:     23.00    50.77    88.85   203.53   230.71
          (Kelvin)            387.12   417.16   422.34   439.65   491.45
                              526.80   577.50   610.07   614.72   623.77
                              720.29   728.71   745.53   844.98   914.30
                              919.22   941.48   941.68  1017.83  1029.00
                             1089.14  1170.40  1178.70  1179.41  1202.79
                             1216.32  1234.76  1277.22  1346.88  1350.90
                             1360.36  1363.06  1474.32  1474.68  1572.65
                             1575.05  1654.99  1656.28  1703.50  1711.63
                             1764.30  1807.01  1881.00  1892.38  1898.54
                             1924.70  1959.65  1966.26  2121.15  2132.45
                             2215.87  2235.63  2345.80  2359.75  2381.92
                             2384.70  2402.87  2408.94  4576.46  4576.91
                             4577.94  4578.39  4613.27  4613.56  4618.79
                             4618.98  5113.68  5114.71  5256.91  5257.74

 Zero-point correction=                           0.218358 (Hartree/Particle)
 Thermal correction to Energy=                    0.231315
 Thermal correction to Enthalpy=                  0.232259
 Thermal correction to Gibbs Free Energy=         0.177450
 Sum of electronic and zero-point Energies=           -649.035912
 Sum of electronic and thermal Energies=              -649.022955
 Sum of electronic and thermal Enthalpies=            -649.022010
 Sum of electronic and thermal Free Energies=         -649.076819

                     E (Thermal)             CV                S
                      KCal/Mol        Cal/Mol-Kelvin    Cal/Mol-Kelvin
 Total                  145.152             51.920            115.354
 Electronic               0.000              0.000              0.000
 Translational            0.889              2.981             41.786
 Rotational               0.889              2.981             32.261
 Vibrational            143.375             45.958             41.308
 Vibration     1          0.593              1.986              7.079
 Vibration     2          0.594              1.982              5.508
 Vibration     3          0.597              1.973              4.400
 Vibration     4          0.615              1.912              2.784
 Vibration     5          0.622              1.891              2.546
 Vibration     6          0.673              1.730              1.602
 Vibration     7          0.686              1.692              1.474
 Vibration     8          0.688              1.686              1.453
 Vibration     9          0.696              1.663              1.386
 Vibration    10          0.721              1.592              1.205
 Vibration    11          0.739              1.542              1.096
 Vibration    12          0.767              1.467              0.958
 Vibration    13          0.786              1.418              0.878
 Vibration    14          0.789              1.411              0.868
 Vibration    15          0.794              1.397              0.847
 Vibration    16          0.856              1.249              0.657
 Vibration    17          0.862              1.236              0.642
 Vibration    18          0.873              1.210              0.614
 Vibration    19          0.944              1.059              0.472

 Optimization completed.
    -- Stationary point found.
 Normal termination of Gaussian 16 at Wed Jul 17 19:49:08 2024.
 Gaussian 16:  ES64L-G16RevA.03 25-Dec-2016

 ----------------------------------------------------------------------
 # TD(NStates=10, Root=1) B3LYP/6-31G** SCRF=(Solvent=water) volume pop
 =NPA density=current Geom=AllCheck Guess=Read
 ----------------------------------------------------------------------

 Structure from the checkpoint file:  "HLBLWEWZXPIGSM-UHFFFAOYSA-N_conf_0_2.chk"
 ----------------------------------
 HLBLWEWZXPIGSM-UHFFFAOYSA-N_conf_0
 ----------------------------------
 Charge =  0 Multiplicity = 1

                         Standard orientation:
 ---------------------------------------------------------------------
 Center     Atomic      Atomic             Coordinates (Angstroms)
 Number     Number       Type             X           Y           Z
 ---------------------------------------------------------------------
      1          7           0        5.008420   -1.070350    0.187090
      2          6           0        3.733543   -0.497484    0.096754
      3          6           0        3.501961    0.625790   -0.716395
      4          6           0        2.247157    1.230446   -0.759960
      5          6           0        1.199883    0.733063    0.016326
      6          8           0       -0.001079    1.430605   -0.007154
      7          6           0       -1.199584    0.728514   -0.019165
      8          6           0       -2.250300    1.237887    0.744540
      9          6           0       -3.503957    0.630312    0.707578
     10          6           0       -3.730675   -0.507988   -0.085770
     11          7           0       -4.967011   -1.165673   -0.065276
     12          6           0       -2.660255   -1.008239   -0.849041
     13          6           0       -1.409381   -0.395271   -0.822891
     14          6           0        1.413639   -0.377394    0.837286
     15          6           0        2.665766   -0.987617    0.870280
     16          1           0        5.583097   -0.933656   -0.635404
     17          1           0        5.005778   -2.046274    0.457081
     18          1           0        4.310430    1.024022   -1.323703
     19          1           0        2.071832    2.093620   -1.394290
     20          1           0       -2.080283    2.116372    1.358999
     21          1           0       -4.314925    1.037283    1.305658
     22          1           0       -5.167087   -1.696997   -0.903844
     23          1           0       -5.750230   -0.568176    0.169202
     24          1           0       -2.813258   -1.883416   -1.475040
     25          1           0       -0.599259   -0.789020   -1.427659
     26          1           0        0.604002   -0.766877    1.445448
     27          1           0        2.821892   -1.851679    1.510836
 ---------------------------------------------------------------------

 SCF Done:  E(RB3LYP) =  -649.254269152     A.U. after    1 cycles

 Excitation energies and oscillator strengths:

 Excited State   1:      Singlet-A      4.1686 eV  297.42 nm  f=0.0845  <S**2>=0.000
      53 -> 54         0.69581
 This state for optimization and/or second-order correction.
 Total Energy, E(TD-HF/TD-DFT) =  -649.101075935
 Copying the excited state density for this state as the 1-particle RhoCI density.

 Excited State   2:      Singlet-A      4.4899 eV  276.14 nm  f=0.0706  <S**2>=0.000
      50 -> 56         0.11309
      52 -> 54        -0.16927
      53 -> 55         0.66962

 Excited State   3:      Singlet-A      4.7180 eV  262.79 nm  f=0.0207  <S**2>=0.000
      52 -> 54         0.67360
      53 -> 55         0.18910

 Excited State   4:      Singlet-A      4.8141 eV  257.55 nm  f=0.6425  <S**2>=0.000
      53 -> 56         0.69775

 Excited State   5:      Singlet-A      5.0167 eV  247.15 nm  f=0.0463  <S**2>=0.000
      51 -> 56        -0.10792
      52 -> 55         0.68474

 Excited State   6:      Singlet-A      5.2539 eV  235.98 nm  f=0.0053  <S**2>=0.000
      52 -> 56        -0.39906
      53 -> 57         0.57848

 Excited State   7:      Singlet-A      5.5960 eV  221.56 nm  f=0.0923  <S**2>=0.000
      50 -> 54         0.17192
      51 -> 55         0.11972
      52 -> 56         0.55794
      53 -> 57         0.37209

 Excited State   8:      Singlet-A      5.7669 eV  214.99 nm  f=0.2734  <S**2>=0.000
      51 -> 54        -0.13599
      52 -> 57         0.68826

 Excited State   9:      Singlet-A      6.0890 eV  203.62 nm  f=0.4222  <S**2>=0.000
      50 -> 55        -0.20947
      51 -> 54         0.66135
      52 -> 57         0.11324

 Excited State  10:      Singlet-A      6.1835 eV  200.51 nm  f=0.0146  <S**2>=0.000
      50 -> 54         0.58630
      51 -> 55        -0.38395

 The electronic state is 1-A.
 Alpha  occ. eigenvalues --  -19.17973 -14.33518 -14.33516 -10.23963 -10.23962
 Alpha  occ. eigenvalues --  -10.22646 -10.22645 -10.19023 -10.19019 -10.18875
 Alpha  occ. eigenvalues --  -10.18875 -10.18689 -10.18687 -10.18641 -10.18640
 Alpha  occ. eigenvalues --   -1.06529  -0.91316  -0.91267  -0.84420  -0.82761
 Alpha  occ. eigenvalues --   -0.74831  -0.74778  -0.73813  -0.70298  -0.62531
 Alpha  occ. eigenvalues --   -0.62055  -0.60891  -0.57736  -0.54086  -0.51562
 Alpha  occ. eigenvalues --   -0.50796  -0.50757  -0.50020  -0.45381  -0.44190
 Alpha  occ. eigenvalues --   -0.43949  -0.43908  -0.42144  -0.41991  -0.41043
 Alpha  occ. eigenvalues --   -0.39304  -0.39104  -0.38002  -0.36852  -0.36059
 Alpha  occ. eigenvalues --   -0.34022  -0.33610  -0.30430  -0.28071  -0.25556
 Alpha  occ. eigenvalues --   -0.25112  -0.20615  -0.18694
 Alpha virt. eigenvalues --   -0.01013   0.00212   0.01212   0.02678   0.08929
 Alpha virt. eigenvalues --    0.09406   0.10691   0.11031   0.13152   0.13170
 Alpha virt. eigenvalues --    0.16150   0.16878   0.17165   0.17272   0.17357

 Mulliken charges:
               1
     1  N   -0.635687
     2  C    0.270315
     3  C   -0.160068
     4  C   -0.159260
     5  C    0.313646
     6  O   -0.546810
     7  C    0.314116
     8  C   -0.159280
     9  C   -0.159941
    10  C    0.270135
    11  N   -0.634746
    12  C   -0.167206
    13  C   -0.144947
    14  C   -0.144741
    15  C   -0.167681
    16  H    0.292054
    17  H    0.291747
    18  H    0.089643
    19  H    0.094011
    20  H    0.093991
    21  H    0.089943
    22  H    0.292371
    23  H    0.291996
    24  H    0.088860
    25  H    0.099174
    26  H    0.099312
    27  H    0.089052
 Sum of Mulliken charges =  -0.00000

 Dipole moment (field-independent basis, Debye):
    X=             -0.7431    Y=             -3.2002    Z=             -1.9502  Tot=              3.8206
 Quadrupole moment (field-independent basis, Debye-Ang):
   XX=            -40.8697   YY=            -83.0070   ZZ=            -86.6581
   XY=             -7.4131   XZ=             -2.5739   YZ=              2.4246

 Summary of Natural Population Analysis:

                                       Natural Population
                Natural  -----------------------------------------------
    Atom  No    Charge         Core      Valence    Rydberg      Total
 -----------------------------------------------------------------------
      N    1   -0.79187      1.99950     5.78124    0.01113     7.79187
      C    2    0.18945      1.99897     3.79418    0.01740     5.81055
      C    3   -0.32664      1.99905     4.31166    0.01593     6.32664
      C    4   -0.31653      1.99903     4.30030    0.01720     6.31653
      C    5    0.30816      1.99869     3.67095    0.02220     5.69184
      O    6   -0.45304      1.99971     6.44189    0.01144     8.45304
      C    7    0.30869      1.99869     3.67043    0.02219     5.69131
      C    8   -0.31624      1.99903     4.30002    0.01719     6.31624
      C    9   -0.32675      1.99905     4.31176    0.01593     6.32675
      C   10    0.18924      1.99897     3.79441    0.01738     5.81076
      N   11   -0.79026      1.99950     5.77964    0.01112     7.79026
      C   12   -0.33448      1.99905     4.31897    0.01646     6.33448
      C   13   -0.33347      1.99902     4.31730    0.01715     6.33347
      C   14   -0.33303      1.99902     4.31687    0.01714     6.33303
      C   15   -0.33510      1.99905     4.31960    0.01645     6.33510
      H   16    0.42160      0.00000     0.57580    0.00260     0.57840
      H   17    0.42137      0.00000     0.57594    0.00269     0.57863
      H   18    0.24213      0.00000     0.75628    0.00158     0.75787
      H   19    0.25012      0.00000     0.74809    0.00179     0.74988
      H   20    0.25009      0.00000     0.74809    0.00183     0.74991
      H   21    0.24228      0.00000     0.75613    0.00159     0.75772
      H   22    0.42166      0.00000     0.57572    0.00262     0.57834
      H   23    0.42138      0.00000     0.57595    0.00266     0.57862
      H   24    0.24191      0.00000     0.75653    0.00156     0.75809
      H   25    0.25365      0.00000     0.74484    0.00152     0.74635
      H   26    0.25361      0.00000     0.74486    0.00153     0.74639
      H   27    0.24207      0.00000     0.75637    0.00156     0.75793
 =======================================================================
   * Total *    0.00000     29.98635    75.74381    0.26984   106.00000

 Normal termination of Gaussian 16 at Wed Jul 17 20:10:34 2024.
