 Gaussian 16, Revision A.03,

 -------------------------------------------------------
 # opt=CalcFc B3LYP/6-31G** SCRF=(Solvent=water) scf=xqc
 -------------------------------------------------------

 ----------------------------------
 HLBLWEWZXPIGSM-UHFFFAOYSA-N_conf_1
 ----------------------------------
 Symbolic Z-matrix:
 Charge =  0 Multiplicity = 1

 SCF Done:  E(RB3LYP) =  -649.251206079     A.U. after   12 cycles
 SCF Done:  E(RB3LYP) =  -649.254204477     A.U. after   10 cycles
 SCF Done:  E(RB3LYP) =  -649.254287127     A.U. after   10 cycles
 SCF Done:  E(RB3LYP) =  -649.254287669     A.U. after    8 cycles
 SCF Done:  E(RB3LYP) =  -649.254287714     A.U. after    6 cycles
 Optimization completed.
    -- Stationary point found.
 Normal termination of Gaussian 16 at Wed Jul 17 20:17:25 2024.

 ----------------------------------------------------------------------
 # freq B3LYP/6-31G** SCRF=(Solvent=water) volume NMR pop=NPA density=c
 urrent Geom=AllCheck Guess=Read
 ----------------------------------------------------------------------

 Structure from the checkpoint file:  "HLBLWEWZXPIGSM-UHFFFAOYSA-N_conf_1_1.chk"
 ----------------------------------
 HLBLWEWZXPIGSM-UHFFFAOYSA-N_conf_1
 ----------------------------------
 Charge =  0 Multiplicity = 1

 SCF Done:  E(RB3LYP) =  -649.254287714     A.U. after    1 cycles

      1  N    Isotropic =   201.9296   Anisotropy =    73.8965

      2  C    Isotropic =    54.1227   Anisotropy =   156.7464

      3  C    Isotropic =    81.6029   Anisotropy =   130.2947

      4  C    Isotropic =    77.8486   Anisotropy =   150.0914

      5  C    Isotropic =    47.1749   Anisotropy =   107.6843

      6  O    Isotropic =   195.4716   Anisotropy =    67.9182

      7  C    Isotropic =    47.1748   Anisotropy =   107.6844

      8  C    Isotropic =    77.8487   Anisotropy =   150.0913

      9  C    Isotropic =    81.6029   Anisotropy =   130.2947

     10  C    Isotropic =    54.1227   Anisotropy =   156.7464

     11  N    Isotropic =   201.9296   Anisotropy =    73.8965

     12  C    Isotropic =    81.8266   Anisotropy =   130.3450

     13  C    Isotropic =    76.1161   Anisotropy =   140.9835

     14  C    Isotropic =    76.1160   Anisotropy =   140.9836

     15  C    Isotropic =    81.8266   Anisotropy =   130.3450

     16  H    Isotropic =    28.7076   Anisotropy =    12.2988

     17  H    Isotropic =    28.7290   Anisotropy =    12.1253

     18  H    Isotropic =    25.1786   Anisotropy =     5.9453

     19  H    Isotropic =    25.0308   Anisotropy =     9.2598

     20  H    Isotropic =    25.0308   Anisotropy =     9.2598

     21  H    Isotropic =    25.1786   Anisotropy =     5.9453

     22  H    Isotropic =    28.7290   Anisotropy =    12.1253

     23  H    Isotropic =    28.7076   Anisotropy =    12.2988

     24  H    Isotropic =    25.1002   Anisotropy =     5.2012

     25  H    Isotropic =    24.7957   Anisotropy =     5.7053

     26  H    Isotropic =    24.7957   Anisotropy =     5.7053

     27  H    Isotropic =    25.1002   Anisotropy =     5.2012

  Exact polarizability: 283.249  -0.000 158.557 -25.803  -0.000 122.748
 Approx polarizability: 308.896  -0.000 206.149 -35.005  -0.000 155.217

                      1                      2                      3
                      A                      A                      A
 Frequencies --     15.9223                35.4900                61.0501
 Red. masses --      4.3249                 3.9814                 4.5767
 Frc consts  --      0.0006                 0.0030                 0.0101
 IR Inten    --      7.3467                 0.0016                 3.1587

                      4                      5                      6
                      A                      A                      A
 Frequencies --    141.1186               159.9936               269.3034
 Red. masses --      5.3763                 4.8836                 5.0958
 Frc consts  --      0.0631                 0.0737                 0.2177
 IR Inten    --      0.3734                 1.5136                 3.6398

                      7                      8                      9
                      A                      A                      A
 Frequencies --    289.5511               289.7645               305.6660
 Red. masses --      1.0399                 1.0532                 5.0537
 Frc consts  --      0.0514                 0.0521                 0.2782
 IR Inten    --     41.6448                31.8698                 0.1272

                     10                     11                     12
                      A                      A                      A
 Frequencies --    341.4001               365.8336               402.1381
 Red. masses --      5.5367                 4.7727                 3.2965
 Frc consts  --      0.3802                 0.3763                 0.3141
 IR Inten    --      2.5813                23.6048                 1.2853

                     13                     14                     15
                      A                      A                      A
 Frequencies --    423.9954               427.2134               433.5794
 Red. masses --      3.1994                 3.1910                 3.9296
 Frc consts  --      0.3389                 0.3431                 0.4352
 IR Inten    --      1.8732                 0.9226                17.8589

                     16                     17                     18
                      A                      A                      A
 Frequencies --    501.0616               506.1653               519.6495
 Red. masses --      2.6735                 7.6185                 2.2259
 Frc consts  --      0.3955                 1.1500                 0.3541
 IR Inten    --     58.8488                 5.8473                37.9430

                     19                     20                     21
                      A                      A                      A
 Frequencies --    584.7323               633.9297               642.1180
 Red. masses --      3.7968                 1.5280                 1.9680
 Frc consts  --      0.7649                 0.3618                 0.4781
 IR Inten    --     70.3862               693.3984               278.4953

                     22                     23                     24
                      A                      A                      A
 Frequencies --    654.4609               654.9185               703.2981
 Red. masses --      6.2552                 3.1607                 4.6948
 Frc consts  --      1.5785                 0.7988                 1.3682
 IR Inten    --     11.0274                95.7843                 5.0218

                     25                     26                     27
                      A                      A                      A
 Frequencies --    714.5533               763.2242               811.3466
 Red. masses --      3.9797                 4.0059                 2.8545
 Frc consts  --      1.1972                 1.3748                 1.1071
 IR Inten    --     32.2097                15.5217                12.1687

                     28                     29                     30
                      A                      A                      A
 Frequencies --    819.4828               819.5431               838.5858
 Red. masses --      1.3173                 1.2615                 2.1983
 Frc consts  --      0.5212                 0.4992                 0.9108
 IR Inten    --      0.9078                 1.2751                44.4730

                     31                     32                     33
                      A                      A                      A
 Frequencies --    839.8678               860.7213               887.6942
 Red. masses --      1.8967                 3.5488                 6.6994
 Frc consts  --      0.7883                 1.5490                 3.1104
 IR Inten    --    109.9293                36.4518                45.7830

                     34                     35                     36
                      A                      A                      A
 Frequencies --    936.0879               938.9133               945.4323
 Red. masses --      1.2759                 1.2885                 1.3049
 Frc consts  --      0.6587                 0.6692                 0.6872
 IR Inten    --      1.8098                 0.4715                 0.4295

                     37                     38                     39
                      A                      A                      A
 Frequencies --    947.3489              1024.8521              1024.9534
 Red. masses --      1.3046                 2.6669                 2.5661
 Frc consts  --      0.6898                 1.6503                 1.5883
 IR Inten    --      0.0000                 0.5230                14.5613

                     40                     41                     42
                      A                      A                      A
 Frequencies --   1093.3218              1094.8444              1150.1912
 Red. masses --      1.4337                 1.4145                 1.1837
 Frc consts  --      1.0097                 0.9990                 0.9226
 IR Inten    --      5.3717                 5.2841                24.8389

                     43                     44                     45
                      A                      A                      A
 Frequencies --   1151.0692              1184.0659              1189.7473
 Red. masses --      1.1772                 1.2621                 1.1270
 Frc consts  --      0.9190                 1.0425                 0.9399
 IR Inten    --     20.1491                 0.4891                 0.7578

                     46                     47                     48
                      A                      A                      A
 Frequencies --   1226.3187              1256.0229              1307.3707
 Red. masses --      2.7271                 3.5219                 3.4069
 Frc consts  --      2.4164                 3.2736                 3.4308
 IR Inten    --     18.7685               981.2797                24.2844

                     49                     50                     51
                      A                      A                      A
 Frequencies --   1315.3106              1319.5357              1337.7855
 Red. masses --      4.6453                 1.9050                 1.5432
 Frc consts  --      4.7350                 1.9543                 1.6272
 IR Inten    --      5.8696                 6.3626                 0.1827

                     52                     53                     54
                      A                      A                      A
 Frequencies --   1362.1594              1366.7894              1474.3656
 Red. masses --      2.6378                 3.8573                 2.9736
 Frc consts  --      2.8836                 4.2455                 3.8084
 IR Inten    --     30.4331                13.6011                 6.2399

                     55                     56                     57
                      A                      A                      A
 Frequencies --   1482.2246              1540.1452              1553.8663
 Red. masses --      3.0625                 2.5117                 2.6947
 Frc consts  --      3.9641                 3.5103                 3.8335
 IR Inten    --      0.9017               760.6379                87.0293

                     58                     59                     60
                      A                      A                      A
 Frequencies --   1630.4042              1640.1240              1655.3881
 Red. masses --      6.3632                 6.6168                 1.4345
 Frc consts  --      9.9660                10.4870                 2.3161
 IR Inten    --      1.2934                 0.2958                81.5697

                     61                     62                     63
                      A                      A                      A
 Frequencies --   1657.2920              1670.1045              1674.3244
 Red. masses --      1.2672                 2.8224                 3.9101
 Frc consts  --      2.0506                 4.6382                 6.4583
 IR Inten    --      0.2073               116.1040                13.7281

                     64                     65                     66
                      A                      A                      A
 Frequencies --   3180.8398              3181.0967              3182.0394
 Red. masses --      1.0891                 1.0892                 1.0887
 Frc consts  --      6.4921                 6.4938                 6.4948
 IR Inten    --     30.4198                26.7553                54.1876

                     67                     68                     69
                      A                      A                      A
 Frequencies --   3182.1361              3206.3481              3206.5486
 Red. masses --      1.0886                 1.0938                 1.0940
 Frc consts  --      6.4944                 6.6253                 6.6271
 IR Inten    --      0.2480                13.2325                18.9217

                     70                     71                     72
                      A                      A                      A
 Frequencies --   3210.2772              3210.3953              3554.0737
 Red. masses --      1.0933                 1.0929                 1.0488
 Frc consts  --      6.6389                 6.6367                 7.8053
 IR Inten    --     13.9520                 1.3389                55.1244

                     73                     74                     75
                      A                      A                      A
 Frequencies --   3554.1050              3653.6597              3653.6602
 Red. masses --      1.0488                 1.0976                 1.0976
 Frc consts  --      7.8056                 8.6327                 8.6326
 IR Inten    --      0.3069                22.7114                18.5424

 - Thermochemistry -
 -------------------
 Temperature   298.150 Kelvin.  Pressure   1.00000 Atm.
 Atom     1 has atomic number  7 and mass  14.00307

 Molecular mass:   200.09496 amu.
 Principal axes and moments of inertia in atomic units:
                           1         2         3
     Eigenvalues --   951.192086985.226887379.59323
           X            1.00000  -0.00000   0.00024
           Y            0.00000   1.00000  -0.00000
           Z           -0.00024   0.00000   1.00000
 This molecule is an asymmetric top.
 Rotational symmetry number  1.
 Warning -- assumption of classical behavior for rotation
           may cause significant error
 Rotational temperatures (Kelvin)      0.09106     0.01240     0.01174
 Rotational constants (GHZ):           1.89735     0.25837     0.24456
 Zero-point vibrational energy     573267.9 (Joules/Mol)
                                  137.01432 (Kcal/Mol)
 Warning -- explicit consideration of  19 degrees of freedom as
           vibrations may cause significant error
 Vibrational temperatures:     22.91    51.06    87.84   203.04   230.20
          (Kelvin)            387.47   416.60   416.91   439.79   491.20
                              526.35   578.59   610.03   614.66   623.82
                              720.92   728.26   747.66   841.30   912.08
                              923.86   941.62   942.28  1011.89  1028.08
                             1098.11  1167.35  1179.05  1179.14  1206.54
                             1208.38  1238.39  1277.19  1346.82  1350.89
                             1360.27  1363.02  1474.53  1474.68  1573.05
                             1575.24  1654.87  1656.13  1703.61  1711.78
                             1764.40  1807.14  1881.01  1892.44  1898.52
                             1924.78  1959.84  1966.51  2121.28  2132.59
                             2215.93  2235.67  2345.79  2359.77  2381.73
                             2384.47  2402.91  2408.98  4576.52  4576.89
                             4578.24  4578.38  4613.22  4613.51  4618.87
                             4619.04  5113.52  5113.56  5256.80  5256.80

 Zero-point correction=                           0.218346 (Hartree/Particle)
 Thermal correction to Energy=                    0.231310
 Thermal correction to Enthalpy=                  0.232254
 Thermal correction to Gibbs Free Energy=         0.177422
 Sum of electronic and zero-point Energies=           -649.035941
 Sum of electronic and thermal Energies=              -649.022978
 Sum of electronic and thermal Enthalpies=            -649.022033
 Sum of electronic and thermal Free Energies=         -649.076865

                     E (Thermal)             CV                S
                      KCal/Mol        Cal/Mol-Kelvin    Cal/Mol-Kelvin
 Total                  145.149             51.926            115.403
 Electronic               0.000              0.000              0.000
 Translational            0.889              2.981             41.786
 Rotational               0.889              2.981             32.261
 Vibrational            143.372             45.965             41.357
 Vibration     1          0.593              1.986              7.087
 Vibration     2          0.594              1.982              5.496
 Vibration     3          0.597              1.973              4.423
 Vibration     4          0.615              1.912              2.789
 Vibration     5          0.622              1.891              2.550
 Vibration     6          0.674              1.730              1.601
 Vibration     7          0.686              1.693              1.477
 Vibration     8          0.686              1.693              1.475
 Vibration     9          0.696              1.663              1.386
 Vibration    10          0.721              1.593              1.206
 Vibration    11          0.739              1.543              1.097
 Vibration    12          0.768              1.466              0.955
 Vibration    13          0.786              1.418              0.879
 Vibration    14          0.789              1.411              0.868
 Vibration    15          0.794              1.397              0.847
 Vibration    16          0.856              1.248              0.655
 Vibration    17          0.861              1.236              0.643
 Vibration    18          0.875              1.206              0.611
 Vibration    19          0.942              1.064              0.477

 Optimization completed.
    -- Stationary point found.
 Normal termination of Gaussian 16 at Wed Jul 17 20:29:08 2024.
 Gaussian 16:  ES64L-G16RevA.03 25-Dec-2016

 ----------------------------------------------------------------------
 # TD(NStates=10, Root=1) B3LYP/6-31G** SCRF=(Solvent=water) volume pop
 =NPA density=current Geom=AllCheck Guess=Read
 ----------------------------------------------------------------------

 Structure from the checkpoint file:  "HLBLWEWZXPIGSM-UHFFFAOYSA-N_conf_1_2.chk"
 ----------------------------------
 HLBLWEWZXPIGSM-UHFFFAOYSA-N_conf_1
 ----------------------------------
 Charge =  0 Multiplicity = 1

                         Standard orientation:
 ---------------------------------------------------------------------
 Center     Atomic      Atomic             Coordinates (Angstroms)
 Number     Number       Type             X           Y           Z
 ---------------------------------------------------------------------
      1          7           0        4.969669   -1.160606    0.066887
      2          6           0        3.732544   -0.504355    0.085231
      3          6           0        2.664654   -0.999914    0.855090
      4          6           0        1.412905   -0.388848    0.827099
      5          6           0        1.199616    0.728197    0.014916
      6          8           0       -0.000000    1.428322    0.000001
      7          6           0       -1.199616    0.728197   -0.014914
      8          6           0       -1.412902   -0.388853   -0.827092
      9          6           0       -2.664650   -0.999919   -0.855084
     10          6           0       -3.732544   -0.504356   -0.085232
     11          7           0       -4.969669   -1.160608   -0.066889
     12          6           0       -3.502399    0.627331    0.716537
     13          6           0       -2.247825    1.232924    0.755300
     14          6           0        2.247822    1.232920   -0.755305
     15          6           0        3.502396    0.627327   -0.716544
     16          1           0        5.751549   -0.564000   -0.174229
     17          1           0        5.172472   -1.685103    0.909088
     18          1           0        2.820335   -1.869874    1.487664
     19          1           0        0.604767   -0.778892    1.436892
     20          1           0       -0.604762   -0.778901   -1.436879
     21          1           0       -2.820330   -1.869883   -1.487654
     22          1           0       -5.172468   -1.685110   -0.909087
     23          1           0       -5.751549   -0.564000    0.174220
     24          1           0       -4.311387    1.030625    1.319771
     25          1           0       -2.075158    2.106268    1.376315
     26          1           0        2.075152    2.106261   -1.376325
     27          1           0        4.311382    1.030618   -1.319783
 ---------------------------------------------------------------------

 SCF Done:  E(RB3LYP) =  -649.254287714     A.U. after    1 cycles

 Excitation energies and oscillator strengths:

 Excited State   1:      Singlet-A      4.1659 eV  297.62 nm  f=0.0844  <S**2>=0.000
      53 -> 54         0.69587
 This state for optimization and/or second-order correction.
 Total Energy, E(TD-HF/TD-DFT) =  -649.101193903
 Copying the excited state density for this state as the 1-particle RhoCI density.

 Excited State   2:      Singlet-A      4.4883 eV  276.24 nm  f=0.0703  <S**2>=0.000
      50 -> 56        -0.11277
      52 -> 54        -0.16600
      53 -> 55         0.67056

 Excited State   3:      Singlet-A      4.7194 eV  262.71 nm  f=0.0213  <S**2>=0.000
      52 -> 54         0.67442
      53 -> 55         0.18587

 Excited State   4:      Singlet-A      4.8068 eV  257.94 nm  f=0.6461  <S**2>=0.000
      53 -> 56         0.69792

 Excited State   5:      Singlet-A      5.0189 eV  247.03 nm  f=0.0466  <S**2>=0.000
      51 -> 56         0.10833
      52 -> 55         0.68488

 Excited State   6:      Singlet-A      5.2580 eV  235.80 nm  f=0.0044  <S**2>=0.000
      52 -> 56         0.40884
      53 -> 57         0.57179

 Excited State   7:      Singlet-A      5.5971 eV  221.52 nm  f=0.0961  <S**2>=0.000
      50 -> 54        -0.17292
      51 -> 55        -0.12036
      52 -> 56         0.55102
      53 -> 57        -0.38207

 Excited State   8:      Singlet-A      5.7785 eV  214.56 nm  f=0.2604  <S**2>=0.000
      51 -> 54        -0.14148
      52 -> 57         0.68752

 Excited State   9:      Singlet-A      6.0898 eV  203.59 nm  f=0.4283  <S**2>=0.000
      50 -> 55        -0.20971
      51 -> 54         0.66025
      52 -> 57         0.11869

 Excited State  10:      Singlet-A      6.1842 eV  200.48 nm  f=0.0144  <S**2>=0.000
      50 -> 54         0.58609
      51 -> 55        -0.38442

 The electronic state is 1-A.
 Alpha  occ. eigenvalues --  -19.17974 -14.33517 -14.33517 -10.23961 -10.23961
 Alpha  occ. eigenvalues --  -10.22643 -10.22643 -10.19019 -10.19019 -10.18874
 Alpha  occ. eigenvalues --  -10.18874 -10.18686 -10.18686 -10.18639 -10.18639
 Alpha  occ. eigenvalues --   -1.06530  -0.91316  -0.91267  -0.84419  -0.82760
 Alpha  occ. eigenvalues --   -0.74830  -0.74777  -0.73811  -0.70296  -0.62529
 Alpha  occ. eigenvalues --   -0.62056  -0.60886  -0.57735  -0.54083  -0.51573
 Alpha  occ. eigenvalues --   -0.50789  -0.50751  -0.50030  -0.45368  -0.44186
 Alpha  occ. eigenvalues --   -0.43943  -0.43929  -0.42104  -0.41982  -0.40915
 Alpha  occ. eigenvalues --   -0.39329  -0.38843  -0.38730  -0.36637  -0.36000
 Alpha  occ. eigenvalues --   -0.33957  -0.33554  -0.30465  -0.28094  -0.25555
 Alpha  occ. eigenvalues --   -0.25111  -0.20621  -0.18683
 Alpha virt. eigenvalues --   -0.01012   0.00216   0.01197   0.02713   0.09000
 Alpha virt. eigenvalues --    0.09313   0.10589   0.11134   0.13152   0.13158
 Alpha virt. eigenvalues --    0.16070   0.16878   0.17188   0.17293   0.17372

 Mulliken charges:
               1
     1  N   -0.634983
     2  C    0.270153
     3  C   -0.167352
     4  C   -0.145021
     5  C    0.314030
     6  O   -0.546728
     7  C    0.314031
     8  C   -0.145020
     9  C   -0.167352
    10  C    0.270153
    11  N   -0.634983
    12  C   -0.159998
    13  C   -0.159391
    14  C   -0.159391
    15  C   -0.159999
    16  H    0.291881
    17  H    0.292272
    18  H    0.088787
    19  H    0.099275
    20  H    0.099275
    21  H    0.088787
    22  H    0.292273
    23  H    0.291881
    24  H    0.089849
    25  H    0.093860
    26  H    0.093860
    27  H    0.089849
 Sum of Mulliken charges =  -0.00000

 Dipole moment (field-independent basis, Debye):
    X=             -0.0001    Y=             -1.6477    Z=             -0.0000  Tot=              1.6477
 Quadrupole moment (field-independent basis, Debye-Ang):
   XX=            -33.1093   YY=            -87.1902   ZZ=            -86.1082
   XY=              0.0000   XZ=              8.1827   YZ=              0.0000

 Summary of Natural Population Analysis:

                                       Natural Population
                Natural  -----------------------------------------------
    Atom  No    Charge         Core      Valence    Rydberg      Total
 -----------------------------------------------------------------------
      N    1   -0.79064      1.99950     5.78002    0.01112     7.79064
      C    2    0.18924      1.99897     3.79441    0.01738     5.81076
      C    3   -0.33470      1.99905     4.31920    0.01645     6.33470
      C    4   -0.33341      1.99902     4.31722    0.01717     6.33341
      C    5    0.30832      1.99869     3.67079    0.02221     5.69168
      O    6   -0.45298      1.99971     6.44183    0.01143     8.45298
      C    7    0.30832      1.99869     3.67078    0.02221     5.69168
      C    8   -0.33341      1.99902     4.31722    0.01717     6.33341
      C    9   -0.33470      1.99905     4.31920    0.01645     6.33470
      C   10    0.18924      1.99897     3.79441    0.01738     5.81076
      N   11   -0.79064      1.99950     5.78001    0.01112     7.79064
      C   12   -0.32680      1.99905     4.31182    0.01593     6.32680
      C   13   -0.31630      1.99903     4.30010    0.01718     6.31630
      C   14   -0.31630      1.99903     4.30010    0.01718     6.31630
      C   15   -0.32680      1.99905     4.31182    0.01593     6.32680
      H   16    0.42132      0.00000     0.57602    0.00266     0.57868
      H   17    0.42161      0.00000     0.57577    0.00262     0.57839
      H   18    0.24188      0.00000     0.75656    0.00156     0.75812
      H   19    0.25372      0.00000     0.74476    0.00152     0.74628
      H   20    0.25372      0.00000     0.74476    0.00152     0.74628
      H   21    0.24188      0.00000     0.75656    0.00156     0.75812
      H   22    0.42161      0.00000     0.57577    0.00262     0.57839
      H   23    0.42132      0.00000     0.57602    0.00266     0.57868
      H   24    0.24224      0.00000     0.75617    0.00159     0.75776
      H   25    0.25002      0.00000     0.74816    0.00183     0.74998
      H   26    0.25002      0.00000     0.74816    0.00183     0.74998
      H   27    0.24224      0.00000     0.75617    0.00159     0.75776
 =======================================================================
   * Total *   -0.00000     29.98635    75.74380    0.26984   106.00000

 Normal termination of Gaussian 16 at Wed Jul 17 20:42:13 2024.
