 Gaussian 16, Revision A.03,

 -------------------------------------------------------
 # opt=CalcFc B3LYP/6-31G** SCRF=(Solvent=water) scf=xqc
 -------------------------------------------------------

 ----------------------------------
 XPAQFJJCWGSXGJ-UHFFFAOYSA-N_conf_2
 ----------------------------------
 Symbolic Z-matrix:
 Charge =  0 Multiplicity = 1

 SCF Done:  E(RB3LYP) =  -742.753311464     A.U. after   13 cycles
 SCF Done:  E(RB3LYP) =  -742.758694863     A.U. after   11 cycles
 SCF Done:  E(RB3LYP) =  -742.759186183     A.U. after   11 cycles
 SCF Done:  E(RB3LYP) =  -742.759210431     A.U. after    9 cycles
 SCF Done:  E(RB3LYP) =  -742.759211645     A.U. after    8 cycles
 Optimization completed.
    -- Stationary point found.
 Normal termination of Gaussian 16 at Fri Jul 19 11:44:32 2024.

 ----------------------------------------------------------------------
 # freq B3LYP/6-31G** SCRF=(Solvent=water) volume NMR pop=NPA density=c
 urrent Geom=AllCheck Guess=Read
 ----------------------------------------------------------------------

 Structure from the checkpoint file:  "XPAQFJJCWGSXGJ-UHFFFAOYSA-N_conf_2_1.chk"
 ----------------------------------
 XPAQFJJCWGSXGJ-UHFFFAOYSA-N_conf_2
 ----------------------------------
 Charge =  0 Multiplicity = 1

 SCF Done:  E(RB3LYP) =  -742.759211645     A.U. after    1 cycles

      1  O    Isotropic =    -7.6809   Anisotropy =   553.0654

      2  C    Isotropic =    33.7425   Anisotropy =    95.3160

      3  N    Isotropic =   129.8750   Anisotropy =    92.4563

      4  C    Isotropic =    65.0215   Anisotropy =   129.5006

      5  C    Isotropic =    78.1063   Anisotropy =   131.9872

      6  C    Isotropic =    82.4395   Anisotropy =   130.2668

      7  C    Isotropic =    54.0080   Anisotropy =   156.4725

      8  N    Isotropic =   201.1808   Anisotropy =    74.4089

      9  C    Isotropic =    82.3546   Anisotropy =   130.9409

     10  C    Isotropic =    78.0615   Anisotropy =   154.9373

     11  C    Isotropic =    72.1651   Anisotropy =   140.5525

     12  C    Isotropic =    70.3312   Anisotropy =   160.4267

     13  C    Isotropic =    83.6225   Anisotropy =   128.0047

     14  C    Isotropic =    47.0063   Anisotropy =   166.5253

     15  N    Isotropic =   194.1797   Anisotropy =    70.5671

     16  C    Isotropic =    82.7824   Anisotropy =   129.7706

     17  C    Isotropic =    65.5712   Anisotropy =   174.2036

     18  H    Isotropic =    24.6023   Anisotropy =     9.1394

     19  H    Isotropic =    25.0503   Anisotropy =     6.7309

     20  H    Isotropic =    25.1344   Anisotropy =     5.6094

     21  H    Isotropic =    28.7063   Anisotropy =    12.1940

     22  H    Isotropic =    28.6728   Anisotropy =    12.1472

     23  H    Isotropic =    25.1517   Anisotropy =     5.7979

     24  H    Isotropic =    23.0121   Anisotropy =    10.2709

     25  H    Isotropic =    24.2125   Anisotropy =     8.2470

     26  H    Isotropic =    25.1307   Anisotropy =     5.9957

     27  H    Isotropic =    28.1498   Anisotropy =    11.9741

     28  H    Isotropic =    28.1360   Anisotropy =    12.1462

     29  H    Isotropic =    25.0474   Anisotropy =     5.7171

     30  H    Isotropic =    23.8414   Anisotropy =     7.6915

  Exact polarizability: 399.320  -2.932 221.356  -6.705  -1.674  75.896
 Approx polarizability: 423.592  -6.753 288.695  -8.419  -0.470  97.453

                      1                      2                      3
                      A                      A                      A
 Frequencies --     31.3508                32.0524                57.2925
 Red. masses --      3.6491                 5.4208                 5.4088
 Frc consts  --      0.0021                 0.0033                 0.0105
 IR Inten    --      0.0944                 2.8300                 2.0507

                      4                      5                      6
                      A                      A                      A
 Frequencies --     81.9791               114.3099               166.4234
 Red. masses --      5.5832                 5.3545                 5.2036
 Frc consts  --      0.0221                 0.0412                 0.0849
 IR Inten    --      5.5990                 4.3216                 4.8478

                      7                      8                      9
                      A                      A                      A
 Frequencies --    197.7453               246.5968               289.4083
 Red. masses --      5.7052                 5.4467                 4.6475
 Frc consts  --      0.1314                 0.1951                 0.2293
 IR Inten    --      9.1355                 4.4936                10.8239

                     10                     11                     12
                      A                      A                      A
 Frequencies --    294.4886               328.7364               368.6042
 Red. masses --      1.0681                 6.5040                 1.2404
 Frc consts  --      0.0546                 0.4141                 0.0993
 IR Inten    --     33.2705                 5.5128                26.6925

                     13                     14                     15
                      A                      A                      A
 Frequencies --    378.9389               388.0774               410.8221
 Red. masses --      3.2831                 3.5141                 3.3178
 Frc consts  --      0.2778                 0.3118                 0.3299
 IR Inten    --     12.8273                 1.9333                 0.8594

                     16                     17                     18
                      A                      A                      A
 Frequencies --    418.9365               423.6294               447.7139
 Red. masses --      3.2320                 3.1702                 4.8100
 Frc consts  --      0.3342                 0.3352                 0.5681
 IR Inten    --      0.7130                 4.0455                12.8284

                     19                     20                     21
                      A                      A                      A
 Frequencies --    484.6900               524.7830               532.2156
 Red. masses --      1.5817                 2.2049                 2.5917
 Frc consts  --      0.2189                 0.3578                 0.4325
 IR Inten    --    622.5718                97.0105               127.5874

                     22                     23                     24
                      A                      A                      A
 Frequencies --    547.2351               569.6306               624.1469
 Red. masses --      3.7259                 1.1918                 2.8997
 Frc consts  --      0.6574                 0.2279                 0.6655
 IR Inten    --    120.2057               133.3600               202.1558

                     25                     26                     27
                      A                      A                      A
 Frequencies --    638.1580               651.9844               657.8202
 Red. masses --      1.9344                 6.5736                 6.5984
 Frc consts  --      0.4641                 1.6464                 1.6823
 IR Inten    --    408.4709                 0.6888                 4.7086

                     28                     29                     30
                      A                      A                      A
 Frequencies --    699.3208               720.3572               758.6653
 Red. masses --      3.8994                 4.2082                 5.7618
 Frc consts  --      1.1236                 1.2866                 1.9539
 IR Inten    --     17.6457                26.0389                26.0998

                     31                     32                     33
                      A                      A                      A
 Frequencies --    795.5147               822.7493               829.3138
 Red. masses --      3.7726                 1.3126                 1.3798
 Frc consts  --      1.4067                 0.5235                 0.5591
 IR Inten    --      8.1500                16.8377                 8.5411

                     34                     35                     36
                      A                      A                      A
 Frequencies --    837.7521               841.2446               850.9573
 Red. masses --      2.7533                 1.9086                 1.9608
 Frc consts  --      1.1385                 0.7958                 0.8365
 IR Inten    --     24.0935                64.3224                42.8668

                     37                     38                     39
                      A                      A                      A
 Frequencies --    864.4308               905.0392               936.7734
 Red. masses --      5.5355                 6.9556                 1.2907
 Frc consts  --      2.4371                 3.3568                 0.6673
 IR Inten    --      6.4146                19.3859                 0.3837

                     40                     41                     42
                      A                      A                      A
 Frequencies --    959.3379               960.1093               978.4812
 Red. masses --      1.2894                 1.2935                 1.3041
 Frc consts  --      0.6991                 0.7025                 0.7357
 IR Inten    --      1.3539                 0.4417                 2.6106

                     43                     44                     45
                      A                      A                      A
 Frequencies --   1023.3189              1028.0842              1084.4210
 Red. masses --      2.8869                 2.7160                 1.4525
 Frc consts  --      1.7812                 1.6914                 1.0064
 IR Inten    --      2.3249                 0.9872                 8.3890

                     46                     47                     48
                      A                      A                      A
 Frequencies --   1098.4008              1132.5615              1157.8451
 Red. masses --      1.4758                 3.0692                 1.1907
 Frc consts  --      1.0491                 2.3195                 0.9405
 IR Inten    --      7.4194                 7.9207                47.7642

                     49                     50                     51
                      A                      A                      A
 Frequencies --   1160.4900              1205.1746              1208.7657
 Red. masses --      1.2229                 1.1411                 1.1484
 Frc consts  --      0.9704                 0.9765                 0.9886
 IR Inten    --     33.9236               129.7051                80.3641

                     52                     53                     54
                      A                      A                      A
 Frequencies --   1271.1365              1279.1515              1310.3753
 Red. masses --      2.3030                 3.1622                 3.0824
 Frc consts  --      2.1925                 3.0485                 3.1184
 IR Inten    --    167.0873               431.0112               123.0986

                     55                     56                     57
                      A                      A                      A
 Frequencies --   1333.3507              1343.4920              1352.3938
 Red. masses --      2.3778                 1.9143                 1.7915
 Frc consts  --      2.4906                 2.0358                 1.9305
 IR Inten    --    128.3271                88.1731                99.5696

                     58                     59                     60
                      A                      A                      A
 Frequencies --   1371.0644              1377.3276              1465.5114
 Red. masses --      3.6921                 3.4235                 2.7605
 Frc consts  --      4.0892                 3.8264                 3.4931
 IR Inten    --     56.1516                14.3473               172.3530

                     61                     62                     63
                      A                      A                      A
 Frequencies --   1478.3393              1551.9401              1554.6473
 Red. masses --      3.1114                 2.3811                 2.7013
 Frc consts  --      4.0063                 3.3789                 3.8467
 IR Inten    --     16.0717               227.9115               757.9638

                     64                     65                     66
                      A                      A                      A
 Frequencies --   1573.1610              1612.7742              1640.2165
 Red. masses --      2.2721                 6.0893                 4.4844
 Frc consts  --      3.3130                 9.3318                 7.1082
 IR Inten    --    254.5238                10.2420                95.2952

                     67                     68                     69
                      A                      A                      A
 Frequencies --   1653.2363              1656.9572              1665.0101
 Red. masses --      1.8210                 1.2169                 2.0621
 Frc consts  --      2.9325                 1.9685                 3.3682
 IR Inten    --     50.9268                61.8629               454.6238

                     70                     71                     72
                      A                      A                      A
 Frequencies --   1676.4690              1707.6244              3172.4242
 Red. masses --      4.3917                 7.6675                 1.0875
 Frc consts  --      7.2723                13.1732                 6.4483
 IR Inten    --    126.5936               368.4330                30.4634

                     73                     74                     75
                      A                      A                      A
 Frequencies --   3178.7132              3180.4999              3184.5665
 Red. masses --      1.0903                 1.0868                 1.0895
 Frc consts  --      6.4908                 6.4770                 6.5098
 IR Inten    --     31.7311                26.8705                23.0992

                     76                     77                     78
                      A                      A                      A
 Frequencies --   3190.0736              3196.3934              3215.0898
 Red. masses --      1.0945                 1.0945                 1.0925
 Frc consts  --      6.5626                 6.5883                 6.6535
 IR Inten    --     24.0534                23.2571                 8.5870

                     79                     80                     81
                      A                      A                      A
 Frequencies --   3264.9493              3554.4922              3576.4231
 Red. masses --      1.0916                 1.0487                 1.0479
 Frc consts  --      6.8561                 7.8067                 7.8969
 IR Inten    --      2.8800                33.9003                84.9262

                     82                     83                     84
                      A                      A                      A
 Frequencies --   3634.9501              3654.5111              3684.5268
 Red. masses --      1.0766                 1.0977                 1.1001
 Frc consts  --      8.3809                 8.6374                 8.7995
 IR Inten    --     35.8746                20.3932                35.3883

 - Thermochemistry -
 -------------------
 Temperature   298.150 Kelvin.  Pressure   1.00000 Atm.
 Atom     1 has atomic number  8 and mass  15.99491

 Molecular mass:   227.10586 amu.
 Principal axes and moments of inertia in atomic units:
                           1         2         3
     Eigenvalues --   931.32413********************
           X            1.00000  -0.00044  -0.00063
           Y            0.00044   0.99998  -0.00550
           Z            0.00064   0.00550   0.99998
 This molecule is an asymmetric top.
 Rotational symmetry number  1.
 Warning -- assumption of classical behavior for rotation
           may cause significant error
 Rotational temperatures (Kelvin)      0.09300     0.00807     0.00748
 Rotational constants (GHZ):           1.93782     0.16814     0.15578
 Zero-point vibrational energy     635986.7 (Joules/Mol)
                                  152.00447 (Kcal/Mol)
 Warning -- explicit consideration of  23 degrees of freedom as
           vibrations may cause significant error
 Vibrational temperatures:     45.11    46.12    82.43   117.95   164.47
          (Kelvin)            239.45   284.51   354.80   416.39   423.70
                              472.98   530.34   545.21   558.36   591.08
                              602.76   609.51   644.16   697.36   755.05
                              765.74   787.35   819.57   898.01   918.17
                              938.06   946.46  1006.17  1036.43  1091.55
                             1144.57  1183.75  1193.20  1205.34  1210.36
                             1224.34  1243.72  1302.15  1347.81  1380.27
                             1381.38  1407.82  1472.33  1479.18  1560.24
                             1580.35  1629.50  1665.88  1669.69  1733.98
                             1739.14  1828.88  1840.41  1885.34  1918.39
                             1932.99  1945.79  1972.66  1981.67  2108.54
                             2127.00  2232.90  2236.79  2263.43  2320.42
                             2359.91  2378.64  2383.99  2395.58  2412.06
                             2456.89  4564.41  4573.46  4576.03  4581.88
                             4589.80  4598.90  4625.80  4697.53  5114.12
                             5145.68  5229.88  5258.03  5301.21

 Zero-point correction=                           0.242235 (Hartree/Particle)
 Thermal correction to Energy=                    0.257080
 Thermal correction to Enthalpy=                  0.258025
 Thermal correction to Gibbs Free Energy=         0.199353
 Sum of electronic and zero-point Energies=           -742.516977
 Sum of electronic and thermal Energies=              -742.502131
 Sum of electronic and thermal Enthalpies=            -742.501187
 Sum of electronic and thermal Free Energies=         -742.559858

                     E (Thermal)             CV                S
                      KCal/Mol        Cal/Mol-Kelvin    Cal/Mol-Kelvin
 Total                  161.320             59.001            123.484
 Electronic               0.000              0.000              0.000
 Translational            0.889              2.981             42.163
 Rotational               0.889              2.981             33.115
 Vibrational            159.543             53.039             48.206
 Vibration     1          0.594              1.983              5.742
 Vibration     2          0.594              1.983              5.698
 Vibration     3          0.596              1.975              4.548
 Vibration     4          0.600              1.961              3.843
 Vibration     5          0.607              1.938              3.194
 Vibration     6          0.624              1.884              2.475
 Vibration     7          0.637              1.843              2.154
 Vibration     8          0.661              1.768              1.755
 Vibration     9          0.686              1.693              1.477
 Vibration    10          0.689              1.684              1.448
 Vibration    11          0.712              1.618              1.266
 Vibration    12          0.741              1.537              1.086
 Vibration    13          0.749              1.515              1.043
 Vibration    14          0.756              1.496              1.008
 Vibration    15          0.775              1.447              0.924
 Vibration    16          0.782              1.429              0.896
 Vibration    17          0.786              1.419              0.880
 Vibration    18          0.807              1.366              0.803
 Vibration    19          0.841              1.284              0.698
 Vibration    20          0.880              1.195              0.599
 Vibration    21          0.887              1.179              0.582
 Vibration    22          0.902              1.146              0.550
 Vibration    23          0.926              1.097              0.505

 Optimization completed.
    -- Stationary point found.
 Normal termination of Gaussian 16 at Fri Jul 19 13:08:25 2024.
 Gaussian 16:  ES64L-G16RevA.03 25-Dec-2016

 ----------------------------------------------------------------------
 # TD(NStates=10, Root=1) B3LYP/6-31G** SCRF=(Solvent=water) volume pop
 =NPA density=current Geom=AllCheck Guess=Read
 ----------------------------------------------------------------------

 Structure from the checkpoint file:  "XPAQFJJCWGSXGJ-UHFFFAOYSA-N_conf_2_2.chk"
 ----------------------------------
 XPAQFJJCWGSXGJ-UHFFFAOYSA-N_conf_2
 ----------------------------------
 Charge =  0 Multiplicity = 1

                         Standard orientation:
 ---------------------------------------------------------------------
 Center     Atomic      Atomic             Coordinates (Angstroms)
 Number     Number       Type             X           Y           Z
 ---------------------------------------------------------------------
      1          8           0        0.167590    1.936333    0.133899
      2          6           0        0.474051    0.740616    0.043156
      3          7           0       -0.455179   -0.263391   -0.065787
      4          6           0       -1.866683   -0.179344   -0.047986
      5          6           0       -2.588668   -1.360884   -0.280838
      6          6           0       -3.978603   -1.369777   -0.265593
      7          6           0       -4.703897   -0.191475   -0.015188
      8          7           0       -6.102461   -0.181315   -0.065829
      9          6           0       -3.975981    0.986881    0.219031
     10          6           0       -2.582606    1.001248    0.204563
     11          6           0        1.901536    0.302151    0.030362
     12          6           0        2.337581   -0.995172    0.351725
     13          6           0        3.685879   -1.327057    0.333657
     14          6           0        4.659008   -0.366686   -0.011211
     15          7           0        5.995942   -0.708686   -0.092060
     16          6           0        4.225582    0.939993   -0.320826
     17          6           0        2.877259    1.260642   -0.291329
     18          1           0       -0.093725   -1.185619   -0.261502
     19          1           0       -2.055190   -2.288777   -0.472739
     20          1           0       -4.509786   -2.299812   -0.449501
     21          1           0       -6.532531   -1.074228    0.141753
     22          1           0       -6.532981    0.555053    0.479839
     23          1           0       -4.510344    1.913006    0.415479
     24          1           0       -2.043472    1.919717    0.384973
     25          1           0        1.630243   -1.759847    0.660330
     26          1           0        3.998184   -2.333538    0.597434
     27          1           0        6.282744   -1.527646    0.426458
     28          1           0        6.659042    0.050940   -0.020363
     29          1           0        4.959319    1.697030   -0.583934
     30          1           0        2.552913    2.269991   -0.520821
 ---------------------------------------------------------------------

 SCF Done:  E(RB3LYP) =  -742.759211645     A.U. after    1 cycles

 Excitation energies and oscillator strengths:

 Excited State   1:      Singlet-A      3.7580 eV  329.92 nm  f=0.8137  <S**2>=0.000
      60 -> 61         0.70237
 This state for optimization and/or second-order correction.
 Total Energy, E(TD-HF/TD-DFT) =  -742.621107242
 Copying the excited state density for this state as the 1-particle RhoCI density.

 Excited State   2:      Singlet-A      4.3985 eV  281.88 nm  f=0.0677  <S**2>=0.000
      58 -> 61        -0.13165
      58 -> 64         0.12326
      60 -> 63         0.67450

 Excited State   3:      Singlet-A      4.4343 eV  279.60 nm  f=0.0414  <S**2>=0.000
      59 -> 62         0.12202
      60 -> 62         0.67558

 Excited State   4:      Singlet-A      4.5059 eV  275.16 nm  f=0.3193  <S**2>=0.000
      57 -> 61        -0.13025
      59 -> 61         0.66605

 Excited State   5:      Singlet-A      4.7973 eV  258.45 nm  f=0.0318  <S**2>=0.000
      57 -> 61         0.48499
      58 -> 61         0.19527
      59 -> 61         0.13983
      59 -> 62        -0.41252
      60 -> 62         0.11871

 Excited State   6:      Singlet-A      4.8273 eV  256.84 nm  f=0.0417  <S**2>=0.000
      56 -> 61         0.37728
      57 -> 61         0.27092
      58 -> 61         0.13850
      59 -> 62         0.48272
      60 -> 62        -0.10781

 Excited State   7:      Singlet-A      5.2802 eV  234.81 nm  f=0.0010  <S**2>=0.000
      59 -> 63         0.69420

 Excited State   8:      Singlet-A      5.3492 eV  231.78 nm  f=0.2175  <S**2>=0.000
      58 -> 63        -0.10313
      60 -> 64         0.68256

 Excited State   9:      Singlet-A      5.4843 eV  226.07 nm  f=0.0582  <S**2>=0.000
      57 -> 61        -0.24248
      58 -> 61         0.63878
      60 -> 63         0.12168

 Excited State  10:      Singlet-A      5.6164 eV  220.75 nm  f=0.1739  <S**2>=0.000
      56 -> 61         0.56275
      57 -> 61        -0.30075
      59 -> 62        -0.26503

 The electronic state is 1-A.
 Alpha  occ. eigenvalues --  -19.11573 -14.37209 -14.34573 -14.33542 -10.29232
 Alpha  occ. eigenvalues --  -10.23930 -10.22779 -10.22535 -10.20106 -10.19477
 Alpha  occ. eigenvalues --  -10.19366 -10.19149 -10.18981 -10.18859 -10.18580
 Alpha  occ. eigenvalues --  -10.18457 -10.18366  -1.03222  -0.93625  -0.92437
 Alpha  occ. eigenvalues --   -0.91205  -0.84620  -0.82903  -0.75192  -0.74880
 Alpha  occ. eigenvalues --   -0.74504  -0.71838  -0.64234  -0.62188  -0.61924
 Alpha  occ. eigenvalues --   -0.59779  -0.56911  -0.54534  -0.52349  -0.51457
 Alpha  occ. eigenvalues --   -0.50900  -0.49599  -0.49060  -0.44635  -0.43757
 Alpha  occ. eigenvalues --   -0.43464  -0.42752  -0.42401  -0.42044  -0.41804
 Alpha  occ. eigenvalues --   -0.40746  -0.39566  -0.38538  -0.38118  -0.37134
 Alpha  occ. eigenvalues --   -0.34333  -0.34150  -0.33392  -0.31097  -0.27235
 Alpha  occ. eigenvalues --   -0.25892  -0.25471  -0.25137  -0.21253  -0.18872
 Alpha virt. eigenvalues --   -0.03115  -0.00674  -0.00204   0.02321   0.07242
 Alpha virt. eigenvalues --    0.08619   0.09280   0.09509   0.11203   0.12185
 Alpha virt. eigenvalues --    0.13057   0.14058   0.16607   0.17345   0.17705

 Mulliken charges:
               1
     1  O   -0.625768
     2  C    0.455600
     3  N   -0.623949
     4  C    0.337726
     5  C   -0.138753
     6  C   -0.099604
     7  C    0.270683
     8  N   -0.605302
     9  C   -0.112862
    10  C   -0.095902
    11  C    0.018566
    12  C   -0.191348
    13  C   -0.142671
    14  C    0.238788
    15  N   -0.678352
    16  C   -0.144209
    17  C   -0.150844
    18  H    0.284763
    19  H    0.135303
    20  H    0.135999
    21  H    0.311638
    22  H    0.311962
    23  H    0.132885
    24  H    0.138811
    25  H    0.070660
    26  H    0.076192
    27  H    0.271892
    28  H    0.271890
    29  H    0.075718
    30  H    0.070488
 Sum of Mulliken charges =  -0.00000

 Dipole moment (field-independent basis, Debye):
    X=            -12.3975    Y=             -6.3699    Z=              1.6373  Tot=             14.0341
 Quadrupole moment (field-independent basis, Debye-Ang):
   XX=            -18.1103   YY=            -94.0656   ZZ=           -103.6194
   XY=              2.9107   XZ=             -2.1086   YZ=             -1.0767

 Summary of Natural Population Analysis:

                                       Natural Population
                Natural  -----------------------------------------------
    Atom  No    Charge         Core      Valence    Rydberg      Total
 -----------------------------------------------------------------------
      O    1   -0.73728      1.99980     6.72096    0.01652     8.73728
      C    2    0.55717      1.99929     3.40300    0.04054     5.44283
      N    3   -0.58898      1.99933     5.58019    0.00946     7.58898
      C    4    0.21788      1.99896     3.76386    0.01930     5.78212
      C    5   -0.24299      1.99908     4.23063    0.01329     6.24299
      C    6   -0.23475      1.99906     4.22258    0.01311     6.23475
      C    7    0.18226      1.99896     3.80185    0.01692     5.81774
      N    8   -0.74835      1.99949     5.73804    0.01081     7.74835
      C    9   -0.23371      1.99906     4.22183    0.01282     6.23371
      C   10   -0.25165      1.99907     4.23834    0.01424     6.25165
      C   11   -0.21429      1.99894     4.19815    0.01720     6.21429
      C   12   -0.28400      1.99908     4.27098    0.01395     6.28400
      C   13   -0.28506      1.99906     4.27268    0.01332     6.28506
      C   14    0.10915      1.99901     3.87305    0.01879     5.89085
      N   15   -0.84769      1.99950     5.83583    0.01236     7.84769
      C   16   -0.29326      1.99905     4.28127    0.01294     6.29326
      C   17   -0.23518      1.99908     4.22061    0.01549     6.23518
      H   18    0.43642      0.00000     0.56021    0.00336     0.56358
      H   19    0.26214      0.00000     0.73648    0.00138     0.73786
      H   20    0.26456      0.00000     0.73415    0.00129     0.73544
      H   21    0.43389      0.00000     0.56385    0.00227     0.56611
      H   22    0.43435      0.00000     0.56343    0.00222     0.56565
      H   23    0.26223      0.00000     0.73648    0.00129     0.73777
      H   24    0.28388      0.00000     0.71315    0.00297     0.71612
      H   25    0.22460      0.00000     0.77375    0.00165     0.77540
      H   26    0.23364      0.00000     0.76477    0.00159     0.76636
      H   27    0.41106      0.00000     0.58632    0.00262     0.58894
      H   28    0.41092      0.00000     0.58644    0.00264     0.58908
      H   29    0.23332      0.00000     0.76511    0.00158     0.76668
      H   30    0.23973      0.00000     0.75770    0.00257     0.76027
 =======================================================================
   * Total *   -0.00000     33.98582    85.71569    0.29848   120.00000

 Normal termination of Gaussian 16 at Fri Jul 19 13:22:30 2024.
