 Gaussian 16, Revision A.03,

 -------------------------------------------------------
 # opt=CalcFc B3LYP/6-31G** SCRF=(Solvent=water) scf=xqc
 -------------------------------------------------------

 ----------------------------------
 XPAQFJJCWGSXGJ-UHFFFAOYSA-N_conf_3
 ----------------------------------
 Symbolic Z-matrix:
 Charge =  0 Multiplicity = 1

 SCF Done:  E(RB3LYP) =  -742.753587093     A.U. after   13 cycles
 SCF Done:  E(RB3LYP) =  -742.758792597     A.U. after   11 cycles
 SCF Done:  E(RB3LYP) =  -742.759175397     A.U. after   10 cycles
 SCF Done:  E(RB3LYP) =  -742.759194859     A.U. after    9 cycles
 SCF Done:  E(RB3LYP) =  -742.759195643     A.U. after    8 cycles
 Optimization completed.
    -- Stationary point found.
 Normal termination of Gaussian 16 at Fri Jul 19 11:40:12 2024.

 ----------------------------------------------------------------------
 # freq B3LYP/6-31G** SCRF=(Solvent=water) volume NMR pop=NPA density=c
 urrent Geom=AllCheck Guess=Read
 ----------------------------------------------------------------------

 Structure from the checkpoint file:  "XPAQFJJCWGSXGJ-UHFFFAOYSA-N_conf_3_1.chk"
 ----------------------------------
 XPAQFJJCWGSXGJ-UHFFFAOYSA-N_conf_3
 ----------------------------------
 Charge =  0 Multiplicity = 1

 SCF Done:  E(RB3LYP) =  -742.759195643     A.U. after    1 cycles

      1  O    Isotropic =    -7.8185   Anisotropy =   553.2753

      2  C    Isotropic =    33.7311   Anisotropy =    95.4002

      3  N    Isotropic =   129.8772   Anisotropy =    92.2303

      4  C    Isotropic =    65.0197   Anisotropy =   129.5114

      5  C    Isotropic =    78.0839   Anisotropy =   131.9822

      6  C    Isotropic =    82.4711   Anisotropy =   130.4831

      7  C    Isotropic =    54.0255   Anisotropy =   156.4748

      8  N    Isotropic =   201.1821   Anisotropy =    74.4846

      9  C    Isotropic =    82.3197   Anisotropy =   130.7146

     10  C    Isotropic =    78.1172   Anisotropy =   154.9251

     11  C    Isotropic =    72.2391   Anisotropy =   140.4821

     12  C    Isotropic =    70.3106   Anisotropy =   160.4341

     13  C    Isotropic =    83.5913   Anisotropy =   128.2679

     14  C    Isotropic =    47.0089   Anisotropy =   166.6837

     15  N    Isotropic =   194.2110   Anisotropy =    70.6672

     16  C    Isotropic =    82.8035   Anisotropy =   129.6427

     17  C    Isotropic =    65.6220   Anisotropy =   174.1576

     18  H    Isotropic =    24.6178   Anisotropy =     9.1629

     19  H    Isotropic =    25.0562   Anisotropy =     6.7284

     20  H    Isotropic =    25.1360   Anisotropy =     5.6175

     21  H    Isotropic =    28.6956   Anisotropy =    12.1643

     22  H    Isotropic =    28.6850   Anisotropy =    12.1890

     23  H    Isotropic =    25.1527   Anisotropy =     5.7880

     24  H    Isotropic =    23.0112   Anisotropy =    10.2599

     25  H    Isotropic =    24.2061   Anisotropy =     8.2259

     26  H    Isotropic =    25.1219   Anisotropy =     5.9929

     27  H    Isotropic =    28.1587   Anisotropy =    12.1079

     28  H    Isotropic =    28.1261   Anisotropy =    12.0088

     29  H    Isotropic =    25.0526   Anisotropy =     5.7193

     30  H    Isotropic =    23.8512   Anisotropy =     7.6886

  Exact polarizability: 399.313   3.466 221.290   5.767  -1.940  76.078
 Approx polarizability: 423.998   5.920 288.233   7.574  -1.747  97.599

                      1                      2                      3
                      A                      A                      A
 Frequencies --     30.3961                33.7423                57.3448
 Red. masses --      4.3950                 4.2830                 5.2170
 Frc consts  --      0.0024                 0.0029                 0.0101
 IR Inten    --      2.9773                 0.3256                 4.1051

                      4                      5                      6
                      A                      A                      A
 Frequencies --     81.4933               114.3820               166.2650
 Red. masses --      5.9294                 5.3593                 4.9641
 Frc consts  --      0.0232                 0.0413                 0.0809
 IR Inten    --      3.4525                 1.2916                 9.0245

                      7                      8                      9
                      A                      A                      A
 Frequencies --    197.3655               246.7520               289.6111
 Red. masses --      6.2718                 5.4523                 4.0522
 Frc consts  --      0.1439                 0.1956                 0.2002
 IR Inten    --      6.8425                 0.7495                16.9413

                     10                     11                     12
                      A                      A                      A
 Frequencies --    295.0422               328.5939               368.0937
 Red. masses --      1.1017                 6.2891                 1.1374
 Frc consts  --      0.0565                 0.4001                 0.0908
 IR Inten    --     33.7003                13.9680                27.4653

                     13                     14                     15
                      A                      A                      A
 Frequencies --    378.6502               388.0846               412.3835
 Red. masses --      3.9211                 3.9190                 3.2534
 Frc consts  --      0.3312                 0.3478                 0.3260
 IR Inten    --     10.4239                 2.2394                 5.1441

                     16                     17                     18
                      A                      A                      A
 Frequencies --    418.9080               423.0909               445.8912
 Red. masses --      3.2478                 3.1995                 4.2132
 Frc consts  --      0.3358                 0.3374                 0.4935
 IR Inten    --      1.0960                 5.3427                85.4447

                     19                     20                     21
                      A                      A                      A
 Frequencies --    489.7540               520.3575               525.2819
 Red. masses --      1.4893                 3.1480                 2.2490
 Frc consts  --      0.2105                 0.5022                 0.3656
 IR Inten    --    478.0649               330.2384                95.6286

                     22                     23                     24
                      A                      A                      A
 Frequencies --    549.7475               569.2019               625.9707
 Red. masses --      3.6498                 1.1956                 2.6851
 Frc consts  --      0.6499                 0.2282                 0.6199
 IR Inten    --     15.9629               117.7744               239.5587

                     25                     26                     27
                      A                      A                      A
 Frequencies --    638.3247               652.0373               658.2705
 Red. masses --      2.0407                 6.6050                 6.4925
 Frc consts  --      0.4899                 1.6545                 1.6576
 IR Inten    --    369.9337                 3.0860                 3.7899

                     28                     29                     30
                      A                      A                      A
 Frequencies --    699.2669               720.3219               758.1916
 Red. masses --      3.9335                 4.1738                 5.7921
 Frc consts  --      1.1332                 1.2760                 1.9618
 IR Inten    --      6.7787                34.3975                30.3303

                     31                     32                     33
                      A                      A                      A
 Frequencies --    796.2747               822.1987               830.3964
 Red. masses --      3.8451                 1.3202                 1.3044
 Frc consts  --      1.4364                 0.5258                 0.5300
 IR Inten    --      6.2219                15.8076                 5.3786

                     34                     35                     36
                      A                      A                      A
 Frequencies --    838.3154               842.5223               848.5745
 Red. masses --      3.0630                 1.9629                 1.9048
 Frc consts  --      1.2683                 0.8209                 0.8081
 IR Inten    --     24.3885                37.9244                74.9649

                     37                     38                     39
                      A                      A                      A
 Frequencies --    864.8198               904.8932               936.4593
 Red. masses --      5.3426                 6.9534                 1.2936
 Frc consts  --      2.3543                 3.3546                 0.6684
 IR Inten    --      2.4577                19.6112                 0.6049

                     40                     41                     42
                      A                      A                      A
 Frequencies --    959.8141               960.7836               977.6519
 Red. masses --      1.2801                 1.2994                 1.3108
 Frc consts  --      0.6948                 0.7067                 0.7382
 IR Inten    --      0.7608                 0.3494                 2.9562

                     43                     44                     45
                      A                      A                      A
 Frequencies --   1023.9448              1028.1738              1087.3015
 Red. masses --      2.8886                 2.7068                 1.4508
 Frc consts  --      1.7844                 1.6859                 1.0106
 IR Inten    --      2.6419                 1.1278                 8.1490

                     46                     47                     48
                      A                      A                      A
 Frequencies --   1098.7539              1132.7070              1157.4985
 Red. masses --      1.4771                 3.0429                 1.1909
 Frc consts  --      1.0507                 2.3003                 0.9401
 IR Inten    --      6.5427                 8.1590                50.4004

                     49                     50                     51
                      A                      A                      A
 Frequencies --   1160.7382              1205.6115              1209.8845
 Red. masses --      1.2245                 1.1336                 1.1600
 Frc consts  --      0.9720                 0.9708                 1.0005
 IR Inten    --     33.7448                92.4158               116.4030

                     52                     53                     54
                      A                      A                      A
 Frequencies --   1271.2043              1279.4032              1310.5568
 Red. masses --      2.2850                 3.1765                 3.0920
 Frc consts  --      2.1756                 3.0635                 3.1290
 IR Inten    --    175.4194               420.5276               121.7259

                     55                     56                     57
                      A                      A                      A
 Frequencies --   1333.7184              1344.0496              1352.5613
 Red. masses --      2.3926                 1.9500                 1.7992
 Frc consts  --      2.5075                 2.0754                 1.9393
 IR Inten    --    127.4014                92.4911                98.9010

                     58                     59                     60
                      A                      A                      A
 Frequencies --   1371.1178              1378.2319              1465.6072
 Red. masses --      3.6535                 3.3075                 2.7521
 Frc consts  --      4.0467                 3.7016                 3.4830
 IR Inten    --     54.8626                13.1602               173.6379

                     61                     62                     63
                      A                      A                      A
 Frequencies --   1479.0473              1552.5632              1554.6238
 Red. masses --      3.0730                 2.3807                 2.6994
 Frc consts  --      3.9608                 3.3811                 3.8439
 IR Inten    --     14.3270               262.0392               740.5699

                     64                     65                     66
                      A                      A                      A
 Frequencies --   1573.5032              1612.8270              1640.2080
 Red. masses --      2.2762                 6.0853                 4.4883
 Frc consts  --      3.3205                 9.3262                 7.1142
 IR Inten    --    237.8457                10.2446                96.4181

                     67                     68                     69
                      A                      A                      A
 Frequencies --   1653.8529              1657.4720              1665.6735
 Red. masses --      1.9347                 1.2177                 1.9204
 Frc consts  --      3.1178                 1.9709                 3.1393
 IR Inten    --     65.3557                55.8717               448.5163

                     70                     71                     72
                      A                      A                      A
 Frequencies --   1676.4805              1707.5538              3172.3579
 Red. masses --      4.3753                 7.6677                 1.0874
 Frc consts  --      7.2453                13.1723                 6.4480
 IR Inten    --    127.1606               364.7027                30.0900

                     73                     74                     75
                      A                      A                      A
 Frequencies --   3179.0563              3180.5752              3184.3173
 Red. masses --      1.0903                 1.0868                 1.0895
 Frc consts  --      6.4920                 6.4774                 6.5087
 IR Inten    --     32.4089                26.8394                22.4146

                     76                     77                     78
                      A                      A                      A
 Frequencies --   3189.9482              3196.4692              3214.8951
 Red. masses --      1.0945                 1.0945                 1.0925
 Frc consts  --      6.5621                 6.5887                 6.6527
 IR Inten    --     23.7936                23.1397                 8.5747

                     79                     80                     81
                      A                      A                      A
 Frequencies --   3264.9042              3554.8180              3577.9069
 Red. masses --      1.0916                 1.0487                 1.0478
 Frc consts  --      6.8560                 7.8081                 7.9031
 IR Inten    --      2.8165                33.8668                84.4013

                     82                     83                     84
                      A                      A                      A
 Frequencies --   3635.1516              3654.8050              3686.4548
 Red. masses --      1.0766                 1.0977                 1.1002
 Frc consts  --      8.3817                 8.6387                 8.8090
 IR Inten    --     36.0191                20.3483                35.3365

 - Thermochemistry -
 -------------------
 Temperature   298.150 Kelvin.  Pressure   1.00000 Atm.
 Atom     1 has atomic number  8 and mass  15.99491

 Molecular mass:   227.10586 amu.
 Principal axes and moments of inertia in atomic units:
                           1         2         3
     Eigenvalues --   931.13310********************
           X            1.00000   0.00160   0.00013
           Y           -0.00160   1.00000  -0.00146
           Z           -0.00013   0.00146   1.00000
 This molecule is an asymmetric top.
 Rotational symmetry number  1.
 Warning -- assumption of classical behavior for rotation
           may cause significant error
 Rotational temperatures (Kelvin)      0.09302     0.00807     0.00748
 Rotational constants (GHZ):           1.93822     0.16812     0.15579
 Zero-point vibrational energy     636066.7 (Joules/Mol)
                                  152.02359 (Kcal/Mol)
 Warning -- explicit consideration of  23 degrees of freedom as
           vibrations may cause significant error
 Vibrational temperatures:     43.73    48.55    82.51   117.25   164.57
          (Kelvin)            239.22   283.96   355.02   416.69   424.50
                              472.77   529.60   544.79   558.37   593.33
                              602.72   608.73   641.54   704.65   748.68
                              755.76   790.96   818.95   900.63   918.41
                              938.14   947.10  1006.09  1036.38  1090.87
                             1145.66  1182.96  1194.76  1206.15  1212.20
                             1220.91  1244.28  1301.94  1347.36  1380.96
                             1382.35  1406.62  1473.23  1479.31  1564.38
                             1580.86  1629.71  1665.38  1670.04  1734.61
                             1740.75  1828.98  1840.78  1885.60  1918.92
                             1933.79  1946.03  1972.73  1982.97  2108.68
                             2128.02  2233.79  2236.76  2263.92  2320.50
                             2359.89  2379.53  2384.73  2396.53  2412.08
                             2456.79  4564.32  4573.95  4576.14  4581.52
                             4589.62  4599.01  4625.52  4697.47  5114.59
                             5147.81  5230.17  5258.45  5303.99

 Zero-point correction=                           0.242265 (Hartree/Particle)
 Thermal correction to Energy=                    0.257112
 Thermal correction to Enthalpy=                  0.258056
 Thermal correction to Gibbs Free Energy=         0.199396
 Sum of electronic and zero-point Energies=           -742.516931
 Sum of electronic and thermal Energies=              -742.502084
 Sum of electronic and thermal Enthalpies=            -742.501140
 Sum of electronic and thermal Free Energies=         -742.559800

                     E (Thermal)             CV                S
                      KCal/Mol        Cal/Mol-Kelvin    Cal/Mol-Kelvin
 Total                  161.340             59.001            123.460
 Electronic               0.000              0.000              0.000
 Translational            0.889              2.981             42.163
 Rotational               0.889              2.981             33.115
 Vibrational            159.563             53.039             48.182
 Vibration     1          0.594              1.984              5.803
 Vibration     2          0.594              1.983              5.596
 Vibration     3          0.596              1.975              4.547
 Vibration     4          0.600              1.962              3.855
 Vibration     5          0.607              1.938              3.193
 Vibration     6          0.624              1.884              2.477
 Vibration     7          0.637              1.844              2.158
 Vibration     8          0.661              1.768              1.754
 Vibration     9          0.686              1.693              1.476
 Vibration    10          0.689              1.683              1.445
 Vibration    11          0.712              1.618              1.267
 Vibration    12          0.741              1.538              1.088
 Vibration    13          0.749              1.516              1.045
 Vibration    14          0.756              1.496              1.007
 Vibration    15          0.776              1.443              0.918
 Vibration    16          0.782              1.429              0.896
 Vibration    17          0.785              1.420              0.882
 Vibration    18          0.805              1.370              0.808
 Vibration    19          0.846              1.273              0.684
 Vibration    20          0.875              1.205              0.609
 Vibration    21          0.880              1.194              0.598
 Vibration    22          0.905              1.140              0.545
 Vibration    23          0.925              1.098              0.506

 Optimization completed.
    -- Stationary point found.
 Normal termination of Gaussian 16 at Fri Jul 19 13:01:07 2024.
 Gaussian 16:  ES64L-G16RevA.03 25-Dec-2016

 ----------------------------------------------------------------------
 # TD(NStates=10, Root=1) B3LYP/6-31G** SCRF=(Solvent=water) volume pop
 =NPA density=current Geom=AllCheck Guess=Read
 ----------------------------------------------------------------------

 Structure from the checkpoint file:  "XPAQFJJCWGSXGJ-UHFFFAOYSA-N_conf_3_2.chk"
 ----------------------------------
 XPAQFJJCWGSXGJ-UHFFFAOYSA-N_conf_3
 ----------------------------------
 Charge =  0 Multiplicity = 1

                         Standard orientation:
 ---------------------------------------------------------------------
 Center     Atomic      Atomic             Coordinates (Angstroms)
 Number     Number       Type             X           Y           Z
 ---------------------------------------------------------------------
      1          8           0       -0.166212    1.937139    0.134183
      2          6           0       -0.473755    0.741335    0.048298
      3          7           0        0.454574   -0.263984   -0.056563
      4          6           0        1.866154   -0.181425   -0.038005
      5          6           0        2.587105   -1.363213   -0.272935
      6          6           0        3.977077   -1.373090   -0.260243
      7          6           0        4.703423   -0.195297   -0.010270
      8          7           0        6.100563   -0.212351    0.069319
      9          6           0        3.976578    0.983835    0.223115
     10          6           0        2.583206    0.999092    0.211643
     11          6           0       -1.901660    0.304286    0.037412
     12          6           0       -2.339130   -0.991501    0.363189
     13          6           0       -3.687394   -1.323105    0.341910
     14          6           0       -4.659114   -0.363631   -0.009385
     15          7           0       -6.005379   -0.675457    0.019085
     16          6           0       -4.224242    0.940855   -0.325991
     17          6           0       -2.875911    1.261289   -0.293192
     18          1           0        0.092226   -1.186571   -0.248830
     19          1           0        2.052830   -2.289336   -0.471086
     20          1           0        4.506849   -2.303765   -0.445011
     21          1           0        6.539712   -0.947410   -0.471196
     22          1           0        6.538291    0.679972   -0.124229
     23          1           0        4.512420    1.909552    0.417473
     24          1           0        2.045044    1.919456    0.385202
     25          1           0       -1.632504   -1.756788    0.671892
     26          1           0       -4.001656   -2.328042    0.609185
     27          1           0       -6.616396   -0.077604   -0.520173
     28          1           0       -6.242423   -1.654580   -0.063522
     29          1           0       -4.957080    1.696254   -0.596299
     30          1           0       -2.549951    2.267717   -0.533037
 ---------------------------------------------------------------------

 SCF Done:  E(RB3LYP) =  -742.759195643     A.U. after    1 cycles

 Excitation energies and oscillator strengths:

 Excited State   1:      Singlet-A      3.7592 eV  329.81 nm  f=0.8174  <S**2>=0.000
      60 -> 61         0.70246
 This state for optimization and/or second-order correction.
 Total Energy, E(TD-HF/TD-DFT) =  -742.621047332
 Copying the excited state density for this state as the 1-particle RhoCI density.

 Excited State   2:      Singlet-A      4.3981 eV  281.91 nm  f=0.0664  <S**2>=0.000
      58 -> 61        -0.13214
      58 -> 64         0.12342
      60 -> 63         0.67321

 Excited State   3:      Singlet-A      4.4325 eV  279.71 nm  f=0.0429  <S**2>=0.000
      59 -> 62         0.12336
      60 -> 62         0.67334

 Excited State   4:      Singlet-A      4.5060 eV  275.15 nm  f=0.3210  <S**2>=0.000
      57 -> 61         0.13334
      59 -> 61         0.66502

 Excited State   5:      Singlet-A      4.7986 eV  258.37 nm  f=0.0279  <S**2>=0.000
      57 -> 61         0.48333
      58 -> 61        -0.18870
      59 -> 61        -0.14050
      59 -> 62         0.42000
      60 -> 62        -0.12092

 Excited State   6:      Singlet-A      4.8271 eV  256.85 nm  f=0.0406  <S**2>=0.000
      56 -> 61        -0.37462
      57 -> 61        -0.28330
      58 -> 61         0.13893
      59 -> 62         0.47642
      60 -> 62        -0.10707

 Excited State   7:      Singlet-A      5.2780 eV  234.91 nm  f=0.0010  <S**2>=0.000
      59 -> 63         0.69426

 Excited State   8:      Singlet-A      5.3451 eV  231.96 nm  f=0.2162  <S**2>=0.000
      58 -> 63        -0.10228
      60 -> 64         0.68254

 Excited State   9:      Singlet-A      5.4860 eV  226.00 nm  f=0.0583  <S**2>=0.000
      57 -> 61         0.23614
      58 -> 61         0.64144
      60 -> 63         0.12164

 Excited State  10:      Singlet-A      5.6174 eV  220.71 nm  f=0.1747  <S**2>=0.000
      56 -> 61         0.56654
      57 -> 61        -0.29637
      59 -> 62         0.26446

 The electronic state is 1-A.
 Alpha  occ. eigenvalues --  -19.11572 -14.37206 -14.34563 -14.33541 -10.29230
 Alpha  occ. eigenvalues --  -10.23923 -10.22778 -10.22534 -10.20103 -10.19476
 Alpha  occ. eigenvalues --  -10.19362 -10.19149 -10.18972 -10.18854 -10.18582
 Alpha  occ. eigenvalues --  -10.18455 -10.18364  -1.03219  -0.93623  -0.92433
 Alpha  occ. eigenvalues --   -0.91205  -0.84616  -0.82901  -0.75188  -0.74876
 Alpha  occ. eigenvalues --   -0.74504  -0.71836  -0.64231  -0.62187  -0.61923
 Alpha  occ. eigenvalues --   -0.59776  -0.56906  -0.54533  -0.52353  -0.51458
 Alpha  occ. eigenvalues --   -0.50896  -0.49598  -0.49050  -0.44635  -0.43746
 Alpha  occ. eigenvalues --   -0.43347  -0.42847  -0.42419  -0.42042  -0.41916
 Alpha  occ. eigenvalues --   -0.40717  -0.39445  -0.38637  -0.37858  -0.37316
 Alpha  occ. eigenvalues --   -0.34332  -0.34151  -0.33417  -0.31099  -0.27210
 Alpha  occ. eigenvalues --   -0.25879  -0.25477  -0.25138  -0.21247  -0.18869
 Alpha virt. eigenvalues --   -0.03107  -0.00674  -0.00205   0.02314   0.07289
 Alpha virt. eigenvalues --    0.08589   0.09295   0.09446   0.11232   0.12163
 Alpha virt. eigenvalues --    0.13129   0.14123   0.16561   0.17335   0.17712

 Mulliken charges:
               1
     1  O   -0.626028
     2  C    0.455348
     3  N   -0.623925
     4  C    0.337499
     5  C   -0.138774
     6  C   -0.099714
     7  C    0.270783
     8  N   -0.605697
     9  C   -0.113061
    10  C   -0.095914
    11  C    0.018917
    12  C   -0.191503
    13  C   -0.142209
    14  C    0.238325
    15  N   -0.677702
    16  C   -0.144151
    17  C   -0.150737
    18  H    0.284591
    19  H    0.135199
    20  H    0.135781
    21  H    0.311681
    22  H    0.311819
    23  H    0.132909
    24  H    0.138806
    25  H    0.070606
    26  H    0.076405
    27  H    0.271952
    28  H    0.272576
    29  H    0.075771
    30  H    0.070448
 Sum of Mulliken charges =  -0.00000

 Dipole moment (field-independent basis, Debye):
    X=             12.5248    Y=             -6.4350    Z=             -3.0071  Tot=             14.3986
 Quadrupole moment (field-independent basis, Debye-Ang):
   XX=            -19.9840   YY=            -93.3599   ZZ=           -103.4354
   XY=              4.2312   XZ=             -0.4828   YZ=              1.1735

 Summary of Natural Population Analysis:

                                       Natural Population
                Natural  -----------------------------------------------
    Atom  No    Charge         Core      Valence    Rydberg      Total
 -----------------------------------------------------------------------
      O    1   -0.73775      1.99980     6.72143    0.01652     8.73775
      C    2    0.55689      1.99930     3.40327    0.04054     5.44311
      N    3   -0.58891      1.99933     5.58011    0.00947     7.58891
      C    4    0.21761      1.99896     3.76412    0.01931     5.78239
      C    5   -0.24304      1.99908     4.23068    0.01329     6.24304
      C    6   -0.23497      1.99906     4.22279    0.01312     6.23497
      C    7    0.18225      1.99896     3.80186    0.01692     5.81775
      N    8   -0.74889      1.99949     5.73857    0.01082     7.74889
      C    9   -0.23382      1.99906     4.22195    0.01281     6.23382
      C   10   -0.25162      1.99907     4.23831    0.01424     6.25162
      C   11   -0.21392      1.99894     4.19778    0.01720     6.21392
      C   12   -0.28416      1.99908     4.27112    0.01396     6.28416
      C   13   -0.28474      1.99906     4.27238    0.01331     6.28474
      C   14    0.10922      1.99901     3.87298    0.01879     5.89078
      N   15   -0.84714      1.99950     5.83528    0.01236     7.84714
      C   16   -0.29329      1.99905     4.28129    0.01295     6.29329
      C   17   -0.23501      1.99908     4.22044    0.01548     6.23501
      H   18    0.43633      0.00000     0.56030    0.00337     0.56367
      H   19    0.26209      0.00000     0.73653    0.00138     0.73791
      H   20    0.26450      0.00000     0.73421    0.00129     0.73550
      H   21    0.43409      0.00000     0.56367    0.00224     0.56591
      H   22    0.43416      0.00000     0.56361    0.00223     0.56584
      H   23    0.26221      0.00000     0.73650    0.00129     0.73779
      H   24    0.28386      0.00000     0.71317    0.00296     0.71614
      H   25    0.22461      0.00000     0.77373    0.00166     0.77539
      H   26    0.23386      0.00000     0.76455    0.00159     0.76614
      H   27    0.41098      0.00000     0.58635    0.00266     0.58902
      H   28    0.41161      0.00000     0.58584    0.00255     0.58839
      H   29    0.23327      0.00000     0.76515    0.00158     0.76673
      H   30    0.23970      0.00000     0.75772    0.00258     0.76030
 =======================================================================
   * Total *   -0.00000     33.98582    85.71569    0.29849   120.00000

 Normal termination of Gaussian 16 at Fri Jul 19 13:15:39 2024.
