 Gaussian 16, Revision A.03,

 -------------------------------------------------------
 # opt=CalcFc B3LYP/6-31G** SCRF=(Solvent=water) scf=xqc
 -------------------------------------------------------

 ----------------------------------
 XPAQFJJCWGSXGJ-UHFFFAOYSA-N_conf_0
 ----------------------------------
 Symbolic Z-matrix:
 Charge =  0 Multiplicity = 1

 SCF Done:  E(RB3LYP) =  -742.753349618     A.U. after   13 cycles
 SCF Done:  E(RB3LYP) =  -742.758715689     A.U. after   11 cycles
 SCF Done:  E(RB3LYP) =  -742.759188361     A.U. after   11 cycles
 SCF Done:  E(RB3LYP) =  -742.759211564     A.U. after    9 cycles
 SCF Done:  E(RB3LYP) =  -742.759212643     A.U. after    8 cycles
 Optimization completed.
    -- Stationary point found.
 Normal termination of Gaussian 16 at Fri Jul 19 11:41:03 2024.

 ----------------------------------------------------------------------
 # freq B3LYP/6-31G** SCRF=(Solvent=water) volume NMR pop=NPA density=c
 urrent Geom=AllCheck Guess=Read
 ----------------------------------------------------------------------

 Structure from the checkpoint file:  "XPAQFJJCWGSXGJ-UHFFFAOYSA-N_conf_0_1.chk"
 ----------------------------------
 XPAQFJJCWGSXGJ-UHFFFAOYSA-N_conf_0
 ----------------------------------
 Charge =  0 Multiplicity = 1

 SCF Done:  E(RB3LYP) =  -742.759212643     A.U. after    1 cycles

      1  O    Isotropic =    -7.7039   Anisotropy =   553.0984

      2  C    Isotropic =    33.7398   Anisotropy =    95.3472

      3  N    Isotropic =   129.8759   Anisotropy =    92.4538

      4  C    Isotropic =    65.0160   Anisotropy =   129.5047

      5  C    Isotropic =    78.1124   Anisotropy =   154.9219

      6  C    Isotropic =    82.3200   Anisotropy =   130.7169

      7  C    Isotropic =    54.0214   Anisotropy =   156.4818

      8  N    Isotropic =   201.1790   Anisotropy =    74.4776

      9  C    Isotropic =    82.4690   Anisotropy =   130.4851

     10  C    Isotropic =    78.0738   Anisotropy =   132.0039

     11  C    Isotropic =    72.1581   Anisotropy =   140.5468

     12  C    Isotropic =    70.3209   Anisotropy =   160.4400

     13  C    Isotropic =    83.6178   Anisotropy =   128.0181

     14  C    Isotropic =    47.0049   Anisotropy =   166.5270

     15  N    Isotropic =   194.1821   Anisotropy =    70.5649

     16  C    Isotropic =    82.7820   Anisotropy =   129.7767

     17  C    Isotropic =    65.5715   Anisotropy =   174.1888

     18  H    Isotropic =    24.6025   Anisotropy =     9.1521

     19  H    Isotropic =    23.0111   Anisotropy =    10.2628

     20  H    Isotropic =    25.1530   Anisotropy =     5.7952

     21  H    Isotropic =    28.6838   Anisotropy =    12.1881

     22  H    Isotropic =    28.6940   Anisotropy =    12.1721

     23  H    Isotropic =    25.1334   Anisotropy =     5.6109

     24  H    Isotropic =    25.0499   Anisotropy =     6.7353

     25  H    Isotropic =    24.2065   Anisotropy =     8.2556

     26  H    Isotropic =    25.1284   Anisotropy =     5.9865

     27  H    Isotropic =    28.1362   Anisotropy =    12.1436

     28  H    Isotropic =    28.1491   Anisotropy =    11.9825

     29  H    Isotropic =    25.0487   Anisotropy =     5.7243

     30  H    Isotropic =    23.8458   Anisotropy =     7.6847

  Exact polarizability: 399.269   3.258 221.246   5.592  -1.730  75.981
 Approx polarizability: 423.463   6.413 288.624  10.363  -0.694  97.613

                      1                      2                      3
                      A                      A                      A
 Frequencies --     30.7611                32.4198                57.0003
 Red. masses --      4.9116                 3.8826                 5.4426
 Frc consts  --      0.0027                 0.0024                 0.0104
 IR Inten    --      3.6629                 1.2114                 2.6144

                      4                      5                      6
                      A                      A                      A
 Frequencies --     81.9678               114.2534               166.0574
 Red. masses --      5.6304                 5.3478                 5.0027
 Frc consts  --      0.0223                 0.0411                 0.0813
 IR Inten    --      5.6604                 1.6416                12.4960

                      7                      8                      9
                      A                      A                      A
 Frequencies --    197.6007               246.8257               289.0612
 Red. masses --      6.0969                 5.3450                 4.2662
 Frc consts  --      0.1403                 0.1919                 0.2100
 IR Inten    --      3.1826                 1.7407                10.9225

                     10                     11                     12
                      A                      A                      A
 Frequencies --    294.9499               328.8089               368.6731
 Red. masses --      1.0929                 6.4746                 1.2584
 Frc consts  --      0.0560                 0.4124                 0.1008
 IR Inten    --     31.6083                 8.7216                22.6649

                     13                     14                     15
                      A                      A                      A
 Frequencies --    378.7922               388.1606               411.3732
 Red. masses --      3.1804                 3.4620                 3.3217
 Frc consts  --      0.2689                 0.3073                 0.3312
 IR Inten    --     16.3277                 4.8899                 3.1425

                     16                     17                     18
                      A                      A                      A
 Frequencies --    418.9751               423.6068               447.5346
 Red. masses --      3.2487                 3.1750                 4.8116
 Frc consts  --      0.3360                 0.3357                 0.5678
 IR Inten    --      1.2385                 5.3918                16.2817

                     19                     20                     21
                      A                      A                      A
 Frequencies --    485.0798               524.7786               531.3637
 Red. masses --      1.5808                 2.1758                 2.6934
 Frc consts  --      0.2192                 0.3530                 0.4481
 IR Inten    --    613.5786               148.0540               108.8931

                     22                     23                     24
                      A                      A                      A
 Frequencies --    547.7724               569.6404               624.8767
 Red. masses --      3.5881                 1.1949                 2.9600
 Frc consts  --      0.6343                 0.2284                 0.6810
 IR Inten    --    105.3994               122.3867               208.7294

                     25                     26                     27
                      A                      A                      A
 Frequencies --    637.5953               651.9561               657.8325
 Red. masses --      1.9072                 6.5997                 6.6019
 Frc consts  --      0.4568                 1.6528                 1.6833
 IR Inten    --    396.7685                 2.6937                 3.9543

                     28                     29                     30
                      A                      A                      A
 Frequencies --    699.3190               720.2518               758.6422
 Red. masses --      3.9051                 4.1816                 5.7673
 Frc consts  --      1.1252                 1.2781                 1.9557
 IR Inten    --      8.4874                38.1707                27.5796

                     31                     32                     33
                      A                      A                      A
 Frequencies --    795.3140               822.1780               829.1497
 Red. masses --      3.7875                 1.3230                 1.3879
 Frc consts  --      1.4115                 0.5269                 0.5622
 IR Inten    --      3.7302                15.6768                 6.9102

                     34                     35                     36
                      A                      A                      A
 Frequencies --    837.2845               842.9271               850.9265
 Red. masses --      2.6149                 1.9378                 1.9585
 Frc consts  --      1.0801                 0.8112                 0.8355
 IR Inten    --      9.2483                80.6337                46.1798

                     37                     38                     39
                      A                      A                      A
 Frequencies --    864.3885               904.9762               936.4722
 Red. masses --      5.5454                 6.9210                 1.2937
 Frc consts  --      2.4412                 3.3396                 0.6685
 IR Inten    --      3.8927                18.7118                 0.6005

                     40                     41                     42
                      A                      A                      A
 Frequencies --    959.4867               960.2403               978.4221
 Red. masses --      1.2938                 1.2867                 1.3042
 Frc consts  --      0.7018                 0.6990                 0.7356
 IR Inten    --      1.0249                 0.6028                 2.6174

                     43                     44                     45
                      A                      A                      A
 Frequencies --   1023.3174              1028.1330              1084.3748
 Red. masses --      2.8848                 2.7166                 1.4527
 Frc consts  --      1.7798                 1.6919                 1.0064
 IR Inten    --      2.1944                 1.0854                 8.3033

                     46                     47                     48
                      A                      A                      A
 Frequencies --   1098.7440              1132.5799              1157.8217
 Red. masses --      1.4782                 3.0644                 1.1906
 Frc consts  --      1.0514                 2.3160                 0.9404
 IR Inten    --      6.8207                 7.9207                47.3830

                     49                     50                     51
                      A                      A                      A
 Frequencies --   1160.7142              1205.0975              1208.7210
 Red. masses --      1.2241                 1.1414                 1.1478
 Frc consts  --      0.9717                 0.9766                 0.9880
 IR Inten    --     33.3276               132.8245                78.2265

                     52                     53                     54
                      A                      A                      A
 Frequencies --   1271.1496              1279.1192              1310.5551
 Red. masses --      2.2936                 3.1738                 3.0909
 Frc consts  --      2.1836                 3.0595                 3.1279
 IR Inten    --    169.2600               429.5401               122.0828

                     55                     56                     57
                      A                      A                      A
 Frequencies --   1333.3222              1343.4775              1352.4930
 Red. masses --      2.3770                 1.9140                 1.7973
 Frc consts  --      2.4897                 2.0354                 1.9370
 IR Inten    --    128.4575                87.9050               101.7316

                     58                     59                     60
                      A                      A                      A
 Frequencies --   1371.1097              1377.2940              1465.5825
 Red. masses --      3.6572                 3.4277                 2.7555
 Frc consts  --      4.0508                 3.8310                 3.4871
 IR Inten    --     54.7188                14.2172               172.2304

                     61                     62                     63
                      A                      A                      A
 Frequencies --   1478.3020              1551.9899              1554.6334
 Red. masses --      3.1125                 2.3864                 2.6991
 Frc consts  --      4.0076                 3.3867                 3.8434
 IR Inten    --     16.3227               255.1593               735.2565

                     64                     65                     66
                      A                      A                      A
 Frequencies --   1573.2395              1612.7840              1640.1989
 Red. masses --      2.2685                 6.0889                 4.4909
 Frc consts  --      3.3081                 9.3314                 7.1183
 IR Inten    --    249.0959                10.1981                96.9335

                     67                     68                     69
                      A                      A                      A
 Frequencies --   1653.1729              1657.4648              1664.9985
 Red. masses --      1.8153                 1.2170                 2.0702
 Frc consts  --      2.9231                 1.9698                 3.3814
 IR Inten    --     46.9463                67.3003               449.3069

                     70                     71                     72
                      A                      A                      A
 Frequencies --   1676.4612              1707.6209              3172.3865
 Red. masses --      4.3791                 7.6676                 1.0874
 Frc consts  --      7.2514                13.1732                 6.4481
 IR Inten    --    127.7589               368.6166                30.0926

                     73                     74                     75
                      A                      A                      A
 Frequencies --   3179.0322              3180.4602              3184.5632
 Red. masses --      1.0903                 1.0868                 1.0895
 Frc consts  --      6.4919                 6.4769                 6.5098
 IR Inten    --     32.3960                26.5709                23.1043

                     76                     77                     78
                      A                      A                      A
 Frequencies --   3189.9898              3196.3517              3215.0367
 Red. masses --      1.0945                 1.0945                 1.0925
 Frc consts  --      6.5623                 6.5881                 6.6533
 IR Inten    --     23.7872                23.2495                 8.6080

                     79                     80                     81
                      A                      A                      A
 Frequencies --   3264.9116              3554.8331              3576.3847
 Red. masses --      1.0916                 1.0487                 1.0479
 Frc consts  --      6.8560                 7.8082                 7.8968
 IR Inten    --      2.8348                33.9180                84.8329

                     82                     83                     84
                      A                      A                      A
 Frequencies --   3634.9942              3654.8263              3684.4785
 Red. masses --      1.0766                 1.0977                 1.1001
 Frc consts  --      8.3811                 8.6388                 8.7992
 IR Inten    --     35.9023                20.3461                35.3836

 - Thermochemistry -
 -------------------
 Temperature   298.150 Kelvin.  Pressure   1.00000 Atm.
 Atom     1 has atomic number  8 and mass  15.99491

 Molecular mass:   227.10586 amu.
 Principal axes and moments of inertia in atomic units:
                           1         2         3
     Eigenvalues --   931.49020********************
           X            1.00000   0.00101  -0.00191
           Y           -0.00102   0.99999  -0.00448
           Z            0.00191   0.00448   0.99999
 This molecule is an asymmetric top.
 Rotational symmetry number  1.
 Warning -- assumption of classical behavior for rotation
           may cause significant error
 Rotational temperatures (Kelvin)      0.09298     0.00807     0.00748
 Rotational constants (GHZ):           1.93748     0.16814     0.15579
 Zero-point vibrational energy     635997.1 (Joules/Mol)
                                  152.00696 (Kcal/Mol)
 Warning -- explicit consideration of  23 degrees of freedom as
           vibrations may cause significant error
 Vibrational temperatures:     44.26    46.64    82.01   117.93   164.39
          (Kelvin)            238.92   284.30   355.13   415.89   424.37
                              473.08   530.44   545.00   558.48   591.87
                              602.81   609.48   643.90   697.92   755.04
                              764.51   788.12   819.59   899.06   917.36
                              938.02   946.47  1006.16  1036.28  1091.52
                             1144.28  1182.93  1192.96  1204.67  1212.78
                             1224.29  1243.66  1302.06  1347.37  1380.49
                             1381.57  1407.73  1472.33  1479.25  1560.17
                             1580.85  1629.53  1665.85  1670.01  1733.87
                             1739.08  1828.90  1840.37  1885.60  1918.35
                             1932.96  1945.94  1972.72  1981.62  2108.65
                             2126.95  2232.97  2236.77  2263.54  2320.44
                             2359.88  2378.55  2384.72  2395.56  2412.05
                             2456.89  4564.36  4573.92  4575.97  4581.88
                             4589.68  4598.84  4625.72  4697.48  5114.61
                             5145.62  5229.95  5258.48  5301.14

 Zero-point correction=                           0.242239 (Hartree/Particle)
 Thermal correction to Energy=                    0.257085
 Thermal correction to Enthalpy=                  0.258030
 Thermal correction to Gibbs Free Energy=         0.199345
 Sum of electronic and zero-point Energies=           -742.516974
 Sum of electronic and thermal Energies=              -742.502127
 Sum of electronic and thermal Enthalpies=            -742.501183
 Sum of electronic and thermal Free Energies=         -742.559868

                     E (Thermal)             CV                S
                      KCal/Mol        Cal/Mol-Kelvin    Cal/Mol-Kelvin
 Total                  161.323             58.999            123.512
 Electronic               0.000              0.000              0.000
 Translational            0.889              2.981             42.163
 Rotational               0.889              2.981             33.115
 Vibrational            159.546             53.038             48.233
 Vibration     1          0.594              1.984              5.780
 Vibration     2          0.594              1.983              5.676
 Vibration     3          0.596              1.975              4.558
 Vibration     4          0.600              1.961              3.843
 Vibration     5          0.607              1.938              3.195
 Vibration     6          0.624              1.884              2.480
 Vibration     7          0.637              1.843              2.155
 Vibration     8          0.661              1.768              1.753
 Vibration     9          0.686              1.694              1.479
 Vibration    10          0.689              1.683              1.445
 Vibration    11          0.712              1.618              1.266
 Vibration    12          0.741              1.537              1.085
 Vibration    13          0.749              1.515              1.044
 Vibration    14          0.756              1.495              1.007
 Vibration    15          0.775              1.446              0.922
 Vibration    16          0.782              1.429              0.895
 Vibration    17          0.786              1.419              0.880
 Vibration    18          0.807              1.366              0.803
 Vibration    19          0.841              1.283              0.696
 Vibration    20          0.880              1.195              0.599
 Vibration    21          0.886              1.181              0.584
 Vibration    22          0.903              1.145              0.549
 Vibration    23          0.926              1.097              0.505

 Optimization completed.
    -- Stationary point found.
 Normal termination of Gaussian 16 at Fri Jul 19 13:02:52 2024.
 Gaussian 16:  ES64L-G16RevA.03 25-Dec-2016

 ----------------------------------------------------------------------
 # TD(NStates=10, Root=1) B3LYP/6-31G** SCRF=(Solvent=water) volume pop
 =NPA density=current Geom=AllCheck Guess=Read
 ----------------------------------------------------------------------

 Structure from the checkpoint file:  "XPAQFJJCWGSXGJ-UHFFFAOYSA-N_conf_0_2.chk"
 ----------------------------------
 XPAQFJJCWGSXGJ-UHFFFAOYSA-N_conf_0
 ----------------------------------
 Charge =  0 Multiplicity = 1

                         Standard orientation:
 ---------------------------------------------------------------------
 Center     Atomic      Atomic             Coordinates (Angstroms)
 Number     Number       Type             X           Y           Z
 ---------------------------------------------------------------------
      1          8           0       -0.167015    1.935921    0.134474
      2          6           0       -0.473848    0.740230    0.044654
      3          7           0        0.455070   -0.264376   -0.061499
      4          6           0        1.866584   -0.181288   -0.039789
      5          6           0        2.582599    0.999114    0.213350
      6          6           0        3.975946    0.984394    0.227934
      7          6           0        4.703773   -0.194072   -0.005739
      8          7           0        6.100721   -0.210727    0.077090
      9          6           0        3.978462   -1.371733   -0.259308
     10          6           0        2.588514   -1.362395   -0.275109
     11          6           0       -1.901490    0.302361    0.030015
     12          6           0       -2.338628   -0.994143    0.353190
     13          6           0       -3.687022   -1.325539    0.333252
     14          6           0       -4.659114   -0.365501   -0.015429
     15          7           0       -5.996034   -0.707158   -0.098159
     16          6           0       -4.224605    0.940383   -0.326863
     17          6           0       -2.876218    1.260587   -0.295452
     18          1           0        0.093413   -1.186610   -0.256796
     19          1           0        2.043682    1.918971    0.387243
     20          1           0        4.510977    1.910007    0.425006
     21          1           0        6.538578    0.682046   -0.114080
     22          1           0        6.541407   -0.944832   -0.463466
     23          1           0        4.509025   -2.301886   -0.444429
     24          1           0        2.055049   -2.288393   -0.475991
     25          1           0       -1.632122   -1.758409    0.664717
     26          1           0       -4.000233   -2.331337    0.598548
     27          1           0       -6.658933    0.052898   -0.029160
     28          1           0       -6.284112   -1.524897    0.421584
     29          1           0       -4.957563    1.697160   -0.592876
     30          1           0       -2.551062    2.269357   -0.526357
 ---------------------------------------------------------------------

 SCF Done:  E(RB3LYP) =  -742.759212643     A.U. after    1 cycles

 Excitation energies and oscillator strengths:

 Excited State   1:      Singlet-A      3.7590 eV  329.83 nm  f=0.8136  <S**2>=0.000
      60 -> 61         0.70243
 This state for optimization and/or second-order correction.
 Total Energy, E(TD-HF/TD-DFT) =  -742.621071731
 Copying the excited state density for this state as the 1-particle RhoCI density.

 Excited State   2:      Singlet-A      4.3987 eV  281.87 nm  f=0.0663  <S**2>=0.000
      58 -> 61        -0.13273
      58 -> 64         0.12399
      60 -> 63         0.67326

 Excited State   3:      Singlet-A      4.4347 eV  279.58 nm  f=0.0423  <S**2>=0.000
      59 -> 62         0.12206
      60 -> 62         0.67342

 Excited State   4:      Singlet-A      4.5029 eV  275.34 nm  f=0.3192  <S**2>=0.000
      57 -> 61         0.13810
      59 -> 61         0.66325

 Excited State   5:      Singlet-A      4.7997 eV  258.32 nm  f=0.0286  <S**2>=0.000
      57 -> 61         0.46609
      58 -> 61        -0.17398
      59 -> 61        -0.13842
      59 -> 62         0.44828
      60 -> 62        -0.12645

 Excited State   6:      Singlet-A      4.8285 eV  256.77 nm  f=0.0455  <S**2>=0.000
      56 -> 61        -0.38196
      57 -> 61        -0.31009
      58 -> 61         0.14486
      59 -> 61         0.10265
      59 -> 62         0.44978

 Excited State   7:      Singlet-A      5.2796 eV  234.84 nm  f=0.0009  <S**2>=0.000
      59 -> 63         0.69434

 Excited State   8:      Singlet-A      5.3454 eV  231.95 nm  f=0.2175  <S**2>=0.000
      58 -> 63        -0.10257
      60 -> 64         0.68236

 Excited State   9:      Singlet-A      5.4843 eV  226.07 nm  f=0.0581  <S**2>=0.000
      57 -> 61         0.22807
      58 -> 61         0.64440
      60 -> 63         0.12199

 Excited State  10:      Singlet-A      5.6164 eV  220.76 nm  f=0.1743  <S**2>=0.000
      56 -> 61         0.56361
      57 -> 61        -0.30058
      59 -> 62         0.26486

 The electronic state is 1-A.
 Alpha  occ. eigenvalues --  -19.11574 -14.37208 -14.34572 -14.33542 -10.29232
 Alpha  occ. eigenvalues --  -10.23929 -10.22779 -10.22535 -10.20105 -10.19477
 Alpha  occ. eigenvalues --  -10.19366 -10.19150 -10.18981 -10.18859 -10.18582
 Alpha  occ. eigenvalues --  -10.18455 -10.18364  -1.03222  -0.93625  -0.92436
 Alpha  occ. eigenvalues --   -0.91205  -0.84620  -0.82903  -0.75192  -0.74879
 Alpha  occ. eigenvalues --   -0.74504  -0.71838  -0.64233  -0.62188  -0.61924
 Alpha  occ. eigenvalues --   -0.59780  -0.56909  -0.54534  -0.52350  -0.51456
 Alpha  occ. eigenvalues --   -0.50899  -0.49598  -0.49058  -0.44633  -0.43773
 Alpha  occ. eigenvalues --   -0.43398  -0.42778  -0.42418  -0.42044  -0.41897
 Alpha  occ. eigenvalues --   -0.40725  -0.39274  -0.38997  -0.37636  -0.37377
 Alpha  occ. eigenvalues --   -0.34335  -0.34152  -0.33393  -0.31118  -0.27210
 Alpha  occ. eigenvalues --   -0.25884  -0.25484  -0.25140  -0.21252  -0.18874
 Alpha virt. eigenvalues --   -0.03114  -0.00674  -0.00205   0.02311   0.07279
 Alpha virt. eigenvalues --    0.08617   0.09279   0.09497   0.11161   0.12199
 Alpha virt. eigenvalues --    0.13072   0.14067   0.16610   0.17401   0.17664

 Mulliken charges:
               1
     1  O   -0.625920
     2  C    0.455553
     3  N   -0.623963
     4  C    0.337743
     5  C   -0.095840
     6  C   -0.112924
     7  C    0.270862
     8  N   -0.605444
     9  C   -0.099582
    10  C   -0.138699
    11  C    0.018446
    12  C   -0.191351
    13  C   -0.142686
    14  C    0.238738
    15  N   -0.678360
    16  C   -0.144198
    17  C   -0.150824
    18  H    0.284642
    19  H    0.138921
    20  H    0.133060
    21  H    0.311957
    22  H    0.311825
    23  H    0.135942
    24  H    0.135357
    25  H    0.070684
    26  H    0.076169
    27  H    0.271877
    28  H    0.271884
    29  H    0.075690
    30  H    0.070443
 Sum of Mulliken charges =  -0.00000

 Dipole moment (field-independent basis, Debye):
    X=             12.4388    Y=             -5.8413    Z=             -0.8510  Tot=             13.7684
 Quadrupole moment (field-independent basis, Debye-Ang):
   XX=            -17.6661   YY=            -94.2950   ZZ=           -103.6731
   XY=              0.5744   XZ=            -14.4293   YZ=             -0.5694

 Summary of Natural Population Analysis:

                                       Natural Population
                Natural  -----------------------------------------------
    Atom  No    Charge         Core      Valence    Rydberg      Total
 -----------------------------------------------------------------------
      O    1   -0.73760      1.99980     6.72129    0.01652     8.73760
      C    2    0.55720      1.99929     3.40296    0.04054     5.44280
      N    3   -0.58902      1.99933     5.58022    0.00946     7.58902
      C    4    0.21804      1.99896     3.76370    0.01930     5.78196
      C    5   -0.25161      1.99907     4.23829    0.01424     6.25161
      C    6   -0.23362      1.99906     4.22174    0.01281     6.23362
      C    7    0.18241      1.99896     3.80171    0.01692     5.81759
      N    8   -0.74848      1.99949     5.73818    0.01081     7.74848
      C    9   -0.23477      1.99906     4.22260    0.01312     6.23477
      C   10   -0.24299      1.99908     4.23062    0.01329     6.24299
      C   11   -0.21435      1.99894     4.19821    0.01720     6.21435
      C   12   -0.28407      1.99908     4.27104    0.01395     6.28407
      C   13   -0.28509      1.99906     4.27271    0.01332     6.28509
      C   14    0.10911      1.99901     3.87309    0.01879     5.89089
      N   15   -0.84771      1.99950     5.83586    0.01236     7.84771
      C   16   -0.29326      1.99905     4.28127    0.01294     6.29326
      C   17   -0.23516      1.99908     4.22059    0.01549     6.23516
      H   18    0.43639      0.00000     0.56023    0.00338     0.56361
      H   19    0.28393      0.00000     0.71311    0.00296     0.71607
      H   20    0.26228      0.00000     0.73643    0.00129     0.73772
      H   21    0.43425      0.00000     0.56353    0.00223     0.56575
      H   22    0.43417      0.00000     0.56359    0.00224     0.56583
      H   23    0.26457      0.00000     0.73414    0.00129     0.73543
      H   24    0.26218      0.00000     0.73644    0.00138     0.73782
      H   25    0.22462      0.00000     0.77372    0.00165     0.77538
      H   26    0.23363      0.00000     0.76478    0.00159     0.76637
      H   27    0.41091      0.00000     0.58645    0.00264     0.58909
      H   28    0.41106      0.00000     0.58633    0.00262     0.58894
      H   29    0.23330      0.00000     0.76513    0.00158     0.76670
      H   30    0.23971      0.00000     0.75772    0.00258     0.76029
 =======================================================================
   * Total *   -0.00000     33.98582    85.71569    0.29849   120.00000

 Normal termination of Gaussian 16 at Fri Jul 19 13:20:15 2024.
