 Gaussian 16, Revision A.03,

 -------------------------------------------------------
 # opt=CalcFc B3LYP/6-31G** SCRF=(Solvent=water) scf=xqc
 -------------------------------------------------------

 ----------------------------------
 YBRVSVVVWCFQMG-UHFFFAOYSA-N_conf_1
 ----------------------------------
 Symbolic Z-matrix:
 Charge =  0 Multiplicity = 1

 SCF Done:  E(RB3LYP) =  -613.358741676     A.U. after   11 cycles
 SCF Done:  E(RB3LYP) =  -613.362000008     A.U. after   10 cycles
 SCF Done:  E(RB3LYP) =  -613.362073909     A.U. after    8 cycles
 SCF Done:  E(RB3LYP) =  -613.362073971     A.U. after    7 cycles
 Optimization completed.
    -- Stationary point found.
 Normal termination of Gaussian 16 at Sun Jul 21 12:13:29 2024.

 ----------------------------------------------------------------------
 # freq B3LYP/6-31G** SCRF=(Solvent=water) volume NMR pop=NPA density=c
 urrent Geom=AllCheck Guess=Read
 ----------------------------------------------------------------------

 Structure from the checkpoint file:  "YBRVSVVVWCFQMG-UHFFFAOYSA-N_conf_1_1.chk"
 ----------------------------------
 YBRVSVVVWCFQMG-UHFFFAOYSA-N_conf_1
 ----------------------------------
 Charge =  0 Multiplicity = 1

 SCF Done:  E(RB3LYP) =  -613.362073971     A.U. after    1 cycles

      1  N    Isotropic =   200.7951   Anisotropy =    74.7909

      2  C    Isotropic =    51.7361   Anisotropy =   160.1479

      3  C    Isotropic =    82.0215   Anisotropy =   130.4652

      4  C    Isotropic =    66.9643   Anisotropy =   161.9020

      5  C    Isotropic =    64.3812   Anisotropy =   169.2022

      6  C    Isotropic =   149.1572   Anisotropy =    21.9019

      7  C    Isotropic =    64.3811   Anisotropy =   169.2019

      8  C    Isotropic =    66.9644   Anisotropy =   161.9030

      9  C    Isotropic =    82.0216   Anisotropy =   130.4651

     10  C    Isotropic =    51.7361   Anisotropy =   160.1478

     11  N    Isotropic =   200.7951   Anisotropy =    74.7909

     12  C    Isotropic =    83.7097   Anisotropy =   127.4952

     13  C    Isotropic =    66.9579   Anisotropy =   144.1474

     14  C    Isotropic =    66.9577   Anisotropy =   144.1477

     15  C    Isotropic =    83.7097   Anisotropy =   127.4953

     16  H    Isotropic =    28.6705   Anisotropy =    12.1776

     17  H    Isotropic =    28.7041   Anisotropy =    12.2672

     18  H    Isotropic =    25.1861   Anisotropy =     6.1254

     19  H    Isotropic =    24.7690   Anisotropy =     9.1833

     20  H    Isotropic =    28.2716   Anisotropy =     6.2056

     21  H    Isotropic =    28.2716   Anisotropy =     6.2056

     22  H    Isotropic =    24.7690   Anisotropy =     9.1835

     23  H    Isotropic =    25.1861   Anisotropy =     6.1255

     24  H    Isotropic =    28.6705   Anisotropy =    12.1776

     25  H    Isotropic =    28.7041   Anisotropy =    12.2672

     26  H    Isotropic =    25.2059   Anisotropy =     5.3820

     27  H    Isotropic =    24.6081   Anisotropy =     6.2317

     28  H    Isotropic =    24.6081   Anisotropy =     6.2317

     29  H    Isotropic =    25.2059   Anisotropy =     5.3819

  Exact polarizability: 259.559   0.003 148.063 -29.946  -0.004 180.221
 Approx polarizability: 283.067   0.004 185.873 -39.428  -0.005 226.198

                      1                      2                      3
                      A                      A                      A
 Frequencies --     15.2683                15.5591                43.6974
 Red. masses --      3.6325                 3.6326                 5.1783
 Frc consts  --      0.0005                 0.0005                 0.0058
 IR Inten    --      0.0889                 2.3525                 1.9434

                      4                      5                      6
                      A                      A                      A
 Frequencies --    124.3954               158.3277               239.2680
 Red. masses --      4.8035                 4.7769                 4.7123
 Frc consts  --      0.0438                 0.0706                 0.1589
 IR Inten    --      0.7687                 5.9055                 1.6582

                      7                      8                      9
                      A                      A                      A
 Frequencies --    297.2642               303.6711               304.7157
 Red. masses --      2.2860                 1.0456                 1.1867
 Frc consts  --      0.1190                 0.0568                 0.0649
 IR Inten    --     24.2996                10.0897                42.3868

                     10                     11                     12
                      A                      A                      A
 Frequencies --    328.8788               335.4905               404.2759
 Red. masses --      5.6324                 2.7176                 3.0816
 Frc consts  --      0.3589                 0.1802                 0.2967
 IR Inten    --      4.7050                 3.0305                 0.0284

                     13                     14                     15
                      A                      A                      A
 Frequencies --    410.4445               418.9796               419.2202
 Red. masses --      2.5759                 3.1089                 3.1009
 Frc consts  --      0.2557                 0.3215                 0.3211
 IR Inten    --      0.0113                 0.0021                 1.2784

                     16                     17                     18
                      A                      A                      A
 Frequencies --    492.6475               494.3029               518.0086
 Red. masses --      5.6997                 2.9229                 2.1872
 Frc consts  --      0.8150                 0.4208                 0.3458
 IR Inten    --     18.4530                52.1265                21.1045

                     19                     20                     21
                      A                      A                      A
 Frequencies --    573.1818               623.9466               636.1833
 Red. masses --      3.0344                 1.4718                 1.4685
 Frc consts  --      0.5874                 0.3376                 0.3502
 IR Inten    --    258.1174               358.2815               479.4784

                     22                     23                     24
                      A                      A                      A
 Frequencies --    654.6172               656.9188               709.3692
 Red. masses --      6.7643                 6.3173                 3.9870
 Frc consts  --      1.7079                 1.6062                 1.1821
 IR Inten    --      3.1839                 0.5025                 0.1123

                     25                     26                     27
                      A                      A                      A
 Frequencies --    721.9273               786.2730               789.3747
 Red. masses --      3.6727                 3.2689                 3.2768
 Frc consts  --      1.1278                 1.1907                 1.2030
 IR Inten    --     11.1666                89.3024                 0.9577

                     28                     29                     30
                      A                      A                      A
 Frequencies --    830.9860               831.1404               832.4054
 Red. masses --      1.2640                 1.3984                 1.4991
 Frc consts  --      0.5143                 0.5691                 0.6120
 IR Inten    --      0.4077                21.0245                28.8649

                     31                     32                     33
                      A                      A                      A
 Frequencies --    838.7271               858.9814               865.4390
 Red. masses --      2.7269                 5.0895                 2.8781
 Frc consts  --      1.1302                 2.2126                 1.2701
 IR Inten    --     26.8891                 2.4873                28.9075

                     34                     35                     36
                      A                      A                      A
 Frequencies --    925.0174               952.8302               955.0695
 Red. masses --      1.6179                 1.3286                 1.4275
 Frc consts  --      0.8156                 0.7107                 0.7672
 IR Inten    --      5.7676                 0.0002                 1.0634

                     37                     38                     39
                      A                      A                      A
 Frequencies --    957.3794               957.4859              1029.4967
 Red. masses --      1.3204                 1.3200                 2.8558
 Frc consts  --      0.7130                 0.7130                 1.7833
 IR Inten    --      0.0225                 0.4515                 0.3574

                     40                     41                     42
                      A                      A                      A
 Frequencies --   1029.7008              1090.5483              1097.9181
 Red. masses --      2.7816                 1.5017                 1.4285
 Frc consts  --      1.7377                 1.0522                 1.0146
 IR Inten    --      3.9139                 1.5988                 5.6879

                     43                     44                     45
                      A                      A                      A
 Frequencies --   1152.9032              1155.3864              1199.0978
 Red. masses --      1.2098                 1.2032                 1.1578
 Frc consts  --      0.9474                 0.9463                 0.9808
 IR Inten    --      7.2215                32.5756                 1.3399

                     46                     47                     48
                      A                      A                      A
 Frequencies --   1204.7904              1206.8679              1218.5916
 Red. masses --      1.1211                 1.1600                 3.2243
 Frc consts  --      0.9588                 0.9954                 2.8210
 IR Inten    --     37.5998                 3.6970                 0.0411

                     49                     50                     51
                      A                      A                      A
 Frequencies --   1229.4799              1306.9599              1310.2698
 Red. masses --      2.3671                 3.0861                 3.1356
 Frc consts  --      2.1082                 3.1059                 3.1717
 IR Inten    --      5.1603               189.6580                55.5112

                     52                     53                     54
                      A                      A                      A
 Frequencies --   1317.4355              1360.3094              1364.6981
 Red. masses --      1.9937                 1.2966                 1.4056
 Frc consts  --      2.0387                 1.4137                 1.5424
 IR Inten    --     30.7156                 4.0597                 0.5720

                     55                     56                     57
                      A                      A                      A
 Frequencies --   1366.9178              1367.3511              1476.0753
 Red. masses --      3.1240                 4.1540                 2.8400
 Frc consts  --      3.4391                 4.5759                 3.6457
 IR Inten    --     41.8450                 7.3322                 1.0287

                     58                     59                     60
                      A                      A                      A
 Frequencies --   1476.2313              1489.5849              1555.5143
 Red. masses --      2.0213                 1.2719                 2.5882
 Frc consts  --      2.5953                 1.6628                 3.6898
 IR Inten    --      0.3713                 8.0156               236.2895

                     61                     62                     63
                      A                      A                      A
 Frequencies --   1558.6630              1625.4151              1629.0402
 Red. masses --      2.6051                 6.0741                 5.8542
 Frc consts  --      3.7289                 9.4550                 9.1534
 IR Inten    --     70.1378                 5.8882                 6.3298

                     64                     65                     66
                      A                      A                      A
 Frequencies --   1655.4890              1656.2844              1670.7228
 Red. masses --      1.3334                 1.2629                 3.3170
 Frc consts  --      2.1531                 2.0411                 5.4551
 IR Inten    --     44.6077                 0.1880               300.6608

                     67                     68                     69
                      A                      A                      A
 Frequencies --   1673.3578              3026.4109              3064.6527
 Red. masses --      3.8979                 1.0599                 1.1035
 Frc consts  --      6.4307                 5.7194                 6.1061
 IR Inten    --     57.9850                71.6021                34.2516

                     70                     71                     72
                      A                      A                      A
 Frequencies --   3166.3278              3166.4364              3167.7933
 Red. masses --      1.0868                 1.0869                 1.0867
 Frc consts  --      6.4197                 6.4204                 6.4247
 IR Inten    --     49.0286                24.3582                 7.4487

                     73                     74                     75
                      A                      A                      A
 Frequencies --   3167.9639              3181.9844              3182.2062
 Red. masses --      1.0868                 1.0944                 1.0944
 Frc consts  --      6.4261                 6.5287                 6.5295
 IR Inten    --     14.5520                19.8488               121.8594

                     76                     77                     78
                      A                      A                      A
 Frequencies --   3185.3768              3185.9325              3555.9970
 Red. masses --      1.0946                 1.0947                 1.0486
 Frc consts  --      6.5439                 6.5465                 7.8127
 IR Inten    --      6.2532                 0.3679                56.4648

                     79                     80                     81
                      A                      A                      A
 Frequencies --   3556.0207              3656.6146              3656.6147
 Red. masses --      1.0487                 1.0978                 1.0978
 Frc consts  --      7.8129                 8.6486                 8.6486
 IR Inten    --      0.6016                 6.5599                34.8090

 - Thermochemistry -
 -------------------
 Temperature   298.150 Kelvin.  Pressure   1.00000 Atm.
 Atom     1 has atomic number  7 and mass  14.00307

 Molecular mass:   198.11570 amu.
 Principal axes and moments of inertia in atomic units:
                           1         2         3
     Eigenvalues --  1163.895737045.046297213.12968
           X            1.00000   0.00000  -0.00119
           Y           -0.00000   1.00000  -0.00002
           Z            0.00119   0.00002   1.00000
 This molecule is an asymmetric top.
 Rotational symmetry number  1.
 Warning -- assumption of classical behavior for rotation
           may cause significant error
 Rotational temperatures (Kelvin)      0.07442     0.01229     0.01201
 Rotational constants (GHZ):           1.55060     0.25617     0.25020
 Zero-point vibrational energy     638070.8 (Joules/Mol)
                                  152.50257 (Kcal/Mol)
 Warning -- explicit consideration of  19 degrees of freedom as
           vibrations may cause significant error
 Vibrational temperatures:     21.97    22.39    62.87   178.98   227.80
          (Kelvin)            344.25   427.70   436.92   438.42   473.18
                              482.70   581.66   590.54   602.82   603.16
                              708.81   711.19   745.30   824.68   897.72
                              915.33   941.85   945.16  1020.62  1038.69
                             1131.27  1135.73  1195.60  1195.83  1197.65
                             1206.74  1235.88  1245.17  1330.89  1370.91
                             1374.13  1377.46  1377.61  1481.22  1481.51
                             1569.06  1579.66  1658.77  1662.34  1725.23
                             1733.42  1736.41  1753.28  1768.95  1880.42
                             1885.19  1895.50  1957.18  1963.50  1966.69
                             1967.31  2123.74  2123.97  2143.18  2238.04
                             2242.57  2338.61  2343.83  2381.88  2383.02
                             2403.80  2407.59  4354.33  4409.35  4555.64
                             4555.80  4557.75  4557.99  4578.17  4578.48
                             4583.05  4583.85  5116.29  5116.32  5261.05
                             5261.05

 Zero-point correction=                           0.243028 (Hartree/Particle)
 Thermal correction to Energy=                    0.256293
 Thermal correction to Enthalpy=                  0.257237
 Thermal correction to Gibbs Free Energy=         0.200766
 Sum of electronic and zero-point Energies=           -613.119046
 Sum of electronic and thermal Energies=              -613.105781
 Sum of electronic and thermal Enthalpies=            -613.104837
 Sum of electronic and thermal Free Energies=         -613.161308

                     E (Thermal)             CV                S
                      KCal/Mol        Cal/Mol-Kelvin    Cal/Mol-Kelvin
 Total                  160.826             52.985            118.853
 Electronic               0.000              0.000              0.000
 Translational            0.889              2.981             41.756
 Rotational               0.889              2.981             32.447
 Vibrational            159.049             47.024             44.650
 Vibration     1          0.593              1.986              7.170
 Vibration     2          0.593              1.986              7.133
 Vibration     3          0.595              1.980              5.084
 Vibration     4          0.610              1.929              3.031
 Vibration     5          0.621              1.893              2.570
 Vibration     6          0.657              1.780              1.808
 Vibration     7          0.691              1.679              1.432
 Vibration     8          0.695              1.667              1.397
 Vibration     9          0.696              1.665              1.391
 Vibration    10          0.712              1.618              1.266
 Vibration    11          0.717              1.605              1.234
 Vibration    12          0.769              1.461              0.947
 Vibration    13          0.775              1.448              0.925
 Vibration    14          0.782              1.429              0.895
 Vibration    15          0.782              1.428              0.895
 Vibration    16          0.848              1.266              0.677
 Vibration    17          0.850              1.263              0.673
 Vibration    18          0.873              1.210              0.615
 Vibration    19          0.929              1.089              0.498

 Optimization completed.
    -- Stationary point found.
 Normal termination of Gaussian 16 at Sun Jul 21 12:28:46 2024.
 Gaussian 16:  ES64L-G16RevA.03 25-Dec-2016

 ----------------------------------------------------------------------
 # TD(NStates=10, Root=1) B3LYP/6-31G** SCRF=(Solvent=water) volume pop
 =NPA density=current Geom=AllCheck Guess=Read
 ----------------------------------------------------------------------

 Structure from the checkpoint file:  "YBRVSVVVWCFQMG-UHFFFAOYSA-N_conf_1_2.chk"
 ----------------------------------
 YBRVSVVVWCFQMG-UHFFFAOYSA-N_conf_1
 ----------------------------------
 Charge =  0 Multiplicity = 1

                         Standard orientation:
 ---------------------------------------------------------------------
 Center     Atomic      Atomic             Coordinates (Angstroms)
 Number     Number       Type             X           Y           Z
 ---------------------------------------------------------------------
      1          7           0       -4.833722   -1.425038   -0.096788
      2          6           0       -3.684082   -0.628611   -0.092940
      3          6           0       -2.738441   -0.720961   -1.132223
      4          6           0       -1.564220    0.024434   -1.091582
      5          6           0       -1.279299    0.892133   -0.026067
      6          6           0        0.000002    1.713519    0.000112
      7          6           0        1.279300    0.892124    0.026181
      8          6           0        1.564189    0.024237    1.091552
      9          6           0        2.738409   -0.721164    1.132097
     10          6           0        3.684081   -0.628631    0.092859
     11          7           0        4.833721   -1.425060    0.096601
     12          6           0        3.406189    0.237074   -0.977569
     13          6           0        2.224653    0.978824   -1.002375
     14          6           0       -2.224621    0.978653    1.002532
     15          6           0       -3.406158    0.236906    0.977632
     16          1           0       -5.602885   -1.050873    0.444956
     17          1           0       -5.147438   -1.703191   -1.018352
     18          1           0       -2.931975   -1.382806   -1.972954
     19          1           0       -0.852061   -0.069651   -1.908058
     20          1           0        0.031153    2.374066   -0.875549
     21          1           0       -0.031145    2.373950    0.875861
     22          1           0        0.852006   -0.069992    1.907990
     23          1           0        2.931918   -1.383158    1.972717
     24          1           0        5.602899   -1.050800   -0.445055
     25          1           0        5.147410   -1.703373    1.018125
     26          1           0        4.120228    0.327184   -1.792439
     27          1           0        2.040444    1.645772   -1.841549
     28          1           0       -2.040387    1.645454    1.841818
     29          1           0       -4.120173    0.326872    1.792539
 ---------------------------------------------------------------------

 SCF Done:  E(RB3LYP) =  -613.362073971     A.U. after    1 cycles

 Excitation energies and oscillator strengths:

 Excited State   1:      Singlet-A      4.5999 eV  269.54 nm  f=0.1409  <S**2>=0.000
      50 -> 57         0.10277
      51 -> 56        -0.12693
      52 -> 55         0.19037
      53 -> 54         0.65879
 This state for optimization and/or second-order correction.
 Total Energy, E(TD-HF/TD-DFT) =  -613.193032071
 Copying the excited state density for this state as the 1-particle RhoCI density.

 Excited State   2:      Singlet-A      4.6408 eV  267.16 nm  f=0.0389  <S**2>=0.000
      50 -> 56         0.12801
      51 -> 57        -0.10588
      52 -> 54         0.22385
      53 -> 55         0.64441

 Excited State   3:      Singlet-A      4.9153 eV  252.24 nm  f=0.0004  <S**2>=0.000
      52 -> 54         0.64865
      53 -> 55        -0.25336

 Excited State   4:      Singlet-A      4.9402 eV  250.97 nm  f=0.0339  <S**2>=0.000
      52 -> 55         0.65296
      53 -> 54        -0.21093
      53 -> 56        -0.13936

 Excited State   5:      Singlet-A      5.0680 eV  244.64 nm  f=0.5534  <S**2>=0.000
      52 -> 55         0.12576
      53 -> 56         0.68684

 Excited State   6:      Singlet-A      5.3217 eV  232.98 nm  f=0.0084  <S**2>=0.000
      52 -> 56         0.55723
      53 -> 57        -0.42102

 Excited State   7:      Singlet-A      5.5795 eV  222.21 nm  f=0.1879  <S**2>=0.000
      50 -> 54        -0.14442
      51 -> 55         0.15466
      52 -> 56         0.40139
      53 -> 57         0.53402

 Excited State   8:      Singlet-A      5.6544 eV  219.27 nm  f=0.2609  <S**2>=0.000
      52 -> 57         0.68955

 Excited State   9:      Singlet-A      6.1583 eV  201.33 nm  f=0.0242  <S**2>=0.000
      50 -> 55         0.46323
      51 -> 54         0.52827

 Excited State  10:      Singlet-A      6.1598 eV  201.28 nm  f=0.0049  <S**2>=0.000
      50 -> 54         0.49785
      51 -> 55         0.49538

 The electronic state is 1-A.
 Alpha  occ. eigenvalues --  -14.33473 -14.33473 -10.22460 -10.22460 -10.18618
 Alpha  occ. eigenvalues --  -10.18411 -10.18410 -10.18367 -10.18366 -10.18329
 Alpha  occ. eigenvalues --  -10.18329 -10.18083 -10.18083 -10.17974 -10.17974
 Alpha  occ. eigenvalues --   -0.91183  -0.91164  -0.84420  -0.82897  -0.76503
 Alpha  occ. eigenvalues --   -0.73900  -0.73811  -0.71661  -0.66106  -0.61031
 Alpha  occ. eigenvalues --   -0.60605  -0.58754  -0.56752  -0.51384  -0.50951
 Alpha  occ. eigenvalues --   -0.50404  -0.49886  -0.46270  -0.45309  -0.43849
 Alpha  occ. eigenvalues --   -0.42541  -0.42306  -0.41475  -0.41193  -0.40848
 Alpha  occ. eigenvalues --   -0.38576  -0.37967  -0.36883  -0.35403  -0.34566
 Alpha  occ. eigenvalues --   -0.33275  -0.32628  -0.30347  -0.29505  -0.24747
 Alpha  occ. eigenvalues --   -0.24677  -0.20386  -0.19404
 Alpha virt. eigenvalues --   -0.00044   0.00075   0.01214   0.02464   0.09460
 Alpha virt. eigenvalues --    0.09533   0.10393   0.11709   0.12511   0.13204
 Alpha virt. eigenvalues --    0.14256   0.15318   0.16670   0.17217   0.17978

 Mulliken charges:
               1
     1  N   -0.625900
     2  C    0.255020
     3  C   -0.150817
     4  C   -0.160890
     5  C    0.141624
     6  C   -0.311055
     7  C    0.141623
     8  C   -0.160884
     9  C   -0.150813
    10  C    0.255020
    11  N   -0.625904
    12  C   -0.138391
    13  C   -0.192784
    14  C   -0.192788
    15  C   -0.138395
    16  H    0.293968
    17  H    0.293221
    18  H    0.081528
    19  H    0.079596
    20  H    0.117744
    21  H    0.117745
    22  H    0.079599
    23  H    0.081531
    24  H    0.293967
    25  H    0.293220
    26  H    0.084652
    27  H    0.076957
    28  H    0.076954
    29  H    0.084648
 Sum of Mulliken charges =  -0.00000

 Dipole moment (field-independent basis, Debye):
    X=              0.0002    Y=             -0.8381    Z=              0.0000  Tot=              0.8381
 Quadrupole moment (field-independent basis, Debye-Ang):
   XX=            -34.4513   YY=            -89.9459   ZZ=            -83.1450
   XY=             -0.0000   XZ=              4.0701   YZ=             -0.0008

 Summary of Natural Population Analysis:

                                       Natural Population
                Natural  -----------------------------------------------
    Atom  No    Charge         Core      Valence    Rydberg      Total
 -----------------------------------------------------------------------
      N    1   -0.77528      1.99949     5.76477    0.01101     7.77528
      C    2    0.18001      1.99898     3.80334    0.01767     5.81999
      C    3   -0.33516      1.99905     4.31952    0.01660     6.33516
      C    4   -0.26646      1.99904     4.25156    0.01585     6.26646
      C    5   -0.00134      1.99900     3.98560    0.01673     6.00134
      C    6   -0.49376      1.99921     4.47997    0.01458     6.49376
      C    7   -0.00134      1.99900     3.98561    0.01673     6.00134
      C    8   -0.26645      1.99904     4.25155    0.01585     6.26645
      C    9   -0.33516      1.99905     4.31951    0.01660     6.33516
      C   10    0.18001      1.99898     3.80335    0.01767     5.81999
      N   11   -0.77529      1.99949     5.76478    0.01101     7.77529
      C   12   -0.30734      1.99905     4.29221    0.01609     6.30734
      C   13   -0.29892      1.99905     4.28320    0.01667     6.29892
      C   14   -0.29892      1.99905     4.28321    0.01667     6.29892
      C   15   -0.30735      1.99905     4.29221    0.01609     6.30735
      H   16    0.42216      0.00000     0.57523    0.00261     0.57784
      H   17    0.42164      0.00000     0.57551    0.00284     0.57836
      H   18    0.23712      0.00000     0.76123    0.00165     0.76288
      H   19    0.23772      0.00000     0.76003    0.00226     0.76228
      H   20    0.25930      0.00000     0.73844    0.00225     0.74070
      H   21    0.25930      0.00000     0.73844    0.00225     0.74070
      H   22    0.23772      0.00000     0.76003    0.00226     0.76228
      H   23    0.23712      0.00000     0.76123    0.00165     0.76288
      H   24    0.42216      0.00000     0.57523    0.00261     0.57784
      H   25    0.42164      0.00000     0.57551    0.00284     0.57836
      H   26    0.23793      0.00000     0.76037    0.00169     0.76207
      H   27    0.23550      0.00000     0.76283    0.00166     0.76450
      H   28    0.23550      0.00000     0.76284    0.00166     0.76450
      H   29    0.23793      0.00000     0.76037    0.00169     0.76207
 =======================================================================
   * Total *    0.00000     29.98653    75.74772    0.26575   106.00000

 Normal termination of Gaussian 16 at Sun Jul 21 12:45:15 2024.
