 Gaussian 16, Revision A.03,

 -------------------------------------------------------
 # opt=CalcFc B3LYP/6-31G** SCRF=(Solvent=water) scf=xqc
 -------------------------------------------------------

 ----------------------------------
 YBRVSVVVWCFQMG-UHFFFAOYSA-N_conf_0
 ----------------------------------
 Symbolic Z-matrix:
 Charge =  0 Multiplicity = 1

 SCF Done:  E(RB3LYP) =  -613.358792058     A.U. after   11 cycles
 SCF Done:  E(RB3LYP) =  -613.362025102     A.U. after   10 cycles
 SCF Done:  E(RB3LYP) =  -613.362096018     A.U. after    9 cycles
 SCF Done:  E(RB3LYP) =  -613.362098016     A.U. after    8 cycles
 SCF Done:  E(RB3LYP) =  -613.362096821     A.U. after    7 cycles
 SCF Done:  E(RB3LYP) =  -613.362097082     A.U. after    6 cycles
 Optimization completed.
    -- Stationary point found.
 Normal termination of Gaussian 16 at Sun Jul 21 12:18:42 2024.

 ----------------------------------------------------------------------
 # freq B3LYP/6-31G** SCRF=(Solvent=water) volume NMR pop=NPA density=c
 urrent Geom=AllCheck Guess=Read
 ----------------------------------------------------------------------

 Structure from the checkpoint file:  "YBRVSVVVWCFQMG-UHFFFAOYSA-N_conf_0_1.chk"
 ----------------------------------
 YBRVSVVVWCFQMG-UHFFFAOYSA-N_conf_0
 ----------------------------------
 Charge =  0 Multiplicity = 1

 SCF Done:  E(RB3LYP) =  -613.362097082     A.U. after    1 cycles

      1  N    Isotropic =   200.8218   Anisotropy =    75.0203

      2  C    Isotropic =    51.7448   Anisotropy =   160.0734

      3  C    Isotropic =    83.7016   Anisotropy =   127.4833

      4  C    Isotropic =    67.1168   Anisotropy =   143.8223

      5  C    Isotropic =    64.3466   Anisotropy =   169.0861

      6  C    Isotropic =   149.1650   Anisotropy =    21.3674

      7  C    Isotropic =    64.4291   Anisotropy =   169.3250

      8  C    Isotropic =    67.0045   Anisotropy =   144.2131

      9  C    Isotropic =    83.6713   Anisotropy =   127.6348

     10  C    Isotropic =    51.7457   Anisotropy =   160.2066

     11  N    Isotropic =   200.7893   Anisotropy =    74.7807

     12  C    Isotropic =    82.0488   Anisotropy =   130.4628

     13  C    Isotropic =    67.0027   Anisotropy =   161.1329

     14  C    Isotropic =    67.0399   Anisotropy =   162.0863

     15  C    Isotropic =    82.0395   Anisotropy =   130.3129

     16  H    Isotropic =    28.6758   Anisotropy =    12.1022

     17  H    Isotropic =    28.7139   Anisotropy =    12.0757

     18  H    Isotropic =    25.2073   Anisotropy =     5.3878

     19  H    Isotropic =    24.6087   Anisotropy =     6.2172

     20  H    Isotropic =    28.2522   Anisotropy =     6.1719

     21  H    Isotropic =    28.2821   Anisotropy =     6.1464

     22  H    Isotropic =    24.5972   Anisotropy =     6.2157

     23  H    Isotropic =    25.2056   Anisotropy =     5.3788

     24  H    Isotropic =    28.7151   Anisotropy =    12.2617

     25  H    Isotropic =    28.6770   Anisotropy =    12.1808

     26  H    Isotropic =    25.2057   Anisotropy =     6.0746

     27  H    Isotropic =    24.7829   Anisotropy =     8.9647

     28  H    Isotropic =    24.7619   Anisotropy =     9.1684

     29  H    Isotropic =    25.1889   Anisotropy =     6.1437

  Exact polarizability: 256.726  -2.172 148.185  29.804  -3.093 182.635
 Approx polarizability: 282.035  -3.959 183.746  37.875  -4.660 229.305

                      1                      2                      3
                      A                      A                      A
 Frequencies --     22.8201                26.0610                43.8685
 Red. masses --      3.6804                 3.6761                 5.0265
 Frc consts  --      0.0011                 0.0015                 0.0057
 IR Inten    --      0.7117                 1.0497                 1.1684

                      4                      5                      6
                      A                      A                      A
 Frequencies --    124.3921               160.1236               237.6989
 Red. masses --      4.7856                 4.9828                 4.7598
 Frc consts  --      0.0436                 0.0753                 0.1584
 IR Inten    --      3.6373                 4.3148                 1.1184

                      7                      8                      9
                      A                      A                      A
 Frequencies --    299.3526               308.2088               312.5209
 Red. masses --      2.8146                 1.0874                 1.0429
 Frc consts  --      0.1486                 0.0609                 0.0600
 IR Inten    --      8.3289                32.2475                35.4391

                     10                     11                     12
                      A                      A                      A
 Frequencies --    330.0132               335.4417               403.6794
 Red. masses --      5.2911                 2.7317                 3.0772
 Frc consts  --      0.3395                 0.1811                 0.2954
 IR Inten    --      5.1304                 1.4744                 0.3400

                     13                     14                     15
                      A                      A                      A
 Frequencies --    410.0986               419.1457               419.5903
 Red. masses --      2.5534                 3.1082                 3.1090
 Frc consts  --      0.2530                 0.3217                 0.3225
 IR Inten    --      0.0248                 0.6340                 0.8899

                     16                     17                     18
                      A                      A                      A
 Frequencies --    491.5766               494.4570               518.1960
 Red. masses --      4.2082                 3.8264                 2.1889
 Frc consts  --      0.5991                 0.5512                 0.3463
 IR Inten    --     58.0263                 6.1417                69.2446

                     19                     20                     21
                      A                      A                      A
 Frequencies --    577.6823               624.4548               633.1081
 Red. masses --      2.9394                 1.5142                 1.4783
 Frc consts  --      0.5780                 0.3479                 0.3491
 IR Inten    --    158.8409               551.8648               370.3713

                     22                     23                     24
                      A                      A                      A
 Frequencies --    654.6870               657.2050               713.6404
 Red. masses --      6.7381                 6.2271                 3.6557
 Frc consts  --      1.7016                 1.5847                 1.0969
 IR Inten    --      2.0686                 1.9886                14.8280

                     25                     26                     27
                      A                      A                      A
 Frequencies --    724.4119               779.7452               792.1932
 Red. masses --      3.5429                 3.1950                 3.4348
 Frc consts  --      1.0954                 1.1445                 1.2700
 IR Inten    --     14.6994                36.0593                23.9176

                     28                     29                     30
                      A                      A                      A
 Frequencies --    829.8321               831.2966               832.2974
 Red. masses --      1.6483                 1.2571                 1.3087
 Frc consts  --      0.6687                 0.5118                 0.5341
 IR Inten    --     62.2861                 0.5221                 9.7191

                     31                     32                     33
                      A                      A                      A
 Frequencies --    844.9234               858.4147               864.5628
 Red. masses --      2.8361                 4.8268                 2.7916
 Frc consts  --      1.1929                 2.0956                 1.2294
 IR Inten    --     39.1943                 0.3108                21.7449

                     34                     35                     36
                      A                      A                      A
 Frequencies --    925.2879               953.1455               954.3597
 Red. masses --      1.6298                 1.3313                 1.4116
 Frc consts  --      0.8221                 0.7126                 0.7575
 IR Inten    --      3.6191                 0.1196                 1.0174

                     37                     38                     39
                      A                      A                      A
 Frequencies --    956.9608               957.6036              1029.3312
 Red. masses --      1.3211                 1.3235                 2.8552
 Frc consts  --      0.7128                 0.7151                 1.7824
 IR Inten    --      0.1715                 0.2427                 0.1755

                     40                     41                     42
                      A                      A                      A
 Frequencies --   1029.5829              1090.4759              1098.2368
 Red. masses --      2.7921                 1.5042                 1.4270
 Frc consts  --      1.7438                 1.0538                 1.0141
 IR Inten    --      4.7528                 1.3096                 5.7593

                     43                     44                     45
                      A                      A                      A
 Frequencies --   1152.6834              1155.4227              1197.8598
 Red. masses --      1.2095                 1.2038                 1.1576
 Frc consts  --      0.9468                 0.9468                 0.9787
 IR Inten    --      7.1498                33.1241                 1.1844

                     46                     47                     48
                      A                      A                      A
 Frequencies --   1204.8673              1206.8339              1218.6218
 Red. masses --      1.1220                 1.1611                 3.2191
 Frc consts  --      0.9596                 0.9964                 2.8166
 IR Inten    --     35.0585                 5.4835                 0.3158

                     49                     50                     51
                      A                      A                      A
 Frequencies --   1229.1976              1307.2175              1310.2574
 Red. masses --      2.3873                 3.1408                 3.1319
 Frc consts  --      2.1252                 3.1622                 3.1679
 IR Inten    --      5.2338               184.9806                64.1382

                     52                     53                     54
                      A                      A                      A
 Frequencies --   1318.2095              1360.5844              1364.3543
 Red. masses --      1.9500                 1.2938                 1.3577
 Frc consts  --      1.9964                 1.4111                 1.4891
 IR Inten    --     24.6289                 3.9697                 2.5363

                     55                     56                     57
                      A                      A                      A
 Frequencies --   1366.3168              1367.3578              1476.0917
 Red. masses --      3.4359                 4.1260                 2.8231
 Frc consts  --      3.7792                 4.5451                 3.6242
 IR Inten    --     38.1164                 7.5273                 1.0461

                     58                     59                     60
                      A                      A                      A
 Frequencies --   1476.5001              1489.6503              1555.4272
 Red. masses --      2.0441                 1.2651                 2.5865
 Frc consts  --      2.6256                 1.6540                 3.6870
 IR Inten    --      0.4276                 7.5278               232.5926

                     61                     62                     63
                      A                      A                      A
 Frequencies --   1558.7070              1625.3876              1628.8731
 Red. masses --      2.6060                 6.0828                 5.8473
 Frc consts  --      3.7304                 9.4682                 9.1408
 IR Inten    --     72.4704                 6.1856                 5.6916

                     64                     65                     66
                      A                      A                      A
 Frequencies --   1655.4601              1656.5262              1670.5107
 Red. masses --      1.3203                 1.2760                 3.2965
 Frc consts  --      2.1319                 2.0630                 5.4200
 IR Inten    --     31.0547                20.2427               257.5628

                     67                     68                     69
                      A                      A                      A
 Frequencies --   1673.2244              3027.6940              3066.5593
 Red. masses --      3.9014                 1.0599                 1.1035
 Frc consts  --      6.4355                 5.7244                 6.1141
 IR Inten    --     91.8004                71.6118                33.9499

                     70                     71                     72
                      A                      A                      A
 Frequencies --   3166.3344              3166.5582              3167.6891
 Red. masses --      1.0868                 1.0868                 1.0867
 Frc consts  --      6.4197                 6.4209                 6.4244
 IR Inten    --     43.7349                28.9771                 9.3623

                     73                     74                     75
                      A                      A                      A
 Frequencies --   3168.1325              3181.8680              3182.4031
 Red. masses --      1.0867                 1.0944                 1.0943
 Frc consts  --      6.4264                 6.5283                 6.5300
 IR Inten    --     12.9254                46.7808                93.2158

                     76                     77                     78
                      A                      A                      A
 Frequencies --   3185.3434              3186.0540              3556.0895
 Red. masses --      1.0946                 1.0946                 1.0486
 Frc consts  --      6.5439                 6.5468                 7.8131
 IR Inten    --      6.1590                 1.0924                28.7234

                     79                     80                     81
                      A                      A                      A
 Frequencies --   3556.5959              3656.7227              3657.1685
 Red. masses --      1.0486                 1.0978                 1.0978
 Frc consts  --      7.8151                 8.6491                 8.6511
 IR Inten    --     26.4614                20.4206                20.4177

 - Thermochemistry -
 -------------------
 Temperature   298.150 Kelvin.  Pressure   1.00000 Atm.
 Atom     1 has atomic number  7 and mass  14.00307

 Molecular mass:   198.11570 amu.
 Principal axes and moments of inertia in atomic units:
                           1         2         3
     Eigenvalues --  1171.381627036.482897187.70000
           X            0.99999   0.00198   0.00312
           Y           -0.00200   0.99998   0.00589
           Z           -0.00311  -0.00590   0.99998
 This molecule is an asymmetric top.
 Rotational symmetry number  1.
 Warning -- assumption of classical behavior for rotation
           may cause significant error
 Rotational temperatures (Kelvin)      0.07394     0.01231     0.01205
 Rotational constants (GHZ):           1.54069     0.25648     0.25109
 Zero-point vibrational energy     638339.6 (Joules/Mol)
                                  152.56681 (Kcal/Mol)
 Warning -- explicit consideration of  19 degrees of freedom as
           vibrations may cause significant error
 Vibrational temperatures:     32.83    37.50    63.12   178.97   230.38
          (Kelvin)            342.00   430.70   443.44   449.65   474.82
                              482.63   580.80   590.04   603.06   603.70
                              707.27   711.41   745.57   831.16   898.45
                              910.90   941.95   945.57  1026.77  1042.27
                             1121.88  1139.79  1193.94  1196.05  1197.49
                             1215.66  1235.07  1243.91  1331.28  1371.36
                             1373.11  1376.85  1377.78  1480.98  1481.34
                             1568.95  1580.12  1658.45  1662.40  1723.45
                             1733.54  1736.36  1753.32  1768.54  1880.79
                             1885.17  1896.61  1957.58  1963.00  1965.83
                             1967.32  2123.77  2124.35  2143.27  2237.91
                             2242.63  2338.57  2343.59  2381.84  2383.37
                             2403.49  2407.40  4356.18  4412.09  4555.65
                             4555.97  4557.60  4558.24  4578.00  4578.77
                             4583.00  4584.02  5116.42  5117.15  5261.21
                             5261.85

 Zero-point correction=                           0.243131 (Hartree/Particle)
 Thermal correction to Energy=                    0.256332
 Thermal correction to Enthalpy=                  0.257277
 Thermal correction to Gibbs Free Energy=         0.201723
 Sum of electronic and zero-point Energies=           -613.118966
 Sum of electronic and thermal Energies=              -613.105765
 Sum of electronic and thermal Enthalpies=            -613.104820
 Sum of electronic and thermal Free Energies=         -613.160375

                     E (Thermal)             CV                S
                      KCal/Mol        Cal/Mol-Kelvin    Cal/Mol-Kelvin
 Total                  160.851             52.940            116.924
 Electronic               0.000              0.000              0.000
 Translational            0.889              2.981             41.756
 Rotational               0.889              2.981             32.449
 Vibrational            159.074             46.978             42.718
 Vibration     1          0.593              1.985              6.372
 Vibration     2          0.593              1.985              6.109
 Vibration     3          0.595              1.980              5.076
 Vibration     4          0.610              1.929              3.031
 Vibration     5          0.622              1.891              2.548
 Vibration     6          0.656              1.783              1.820
 Vibration     7          0.692              1.675              1.421
 Vibration     8          0.698              1.658              1.372
 Vibration     9          0.701              1.650              1.349
 Vibration    10          0.713              1.616              1.260
 Vibration    11          0.717              1.605              1.234
 Vibration    12          0.769              1.462              0.949
 Vibration    13          0.774              1.448              0.926
 Vibration    14          0.782              1.429              0.895
 Vibration    15          0.782              1.428              0.893
 Vibration    16          0.847              1.269              0.680
 Vibration    17          0.850              1.262              0.672
 Vibration    18          0.873              1.210              0.614
 Vibration    19          0.934              1.080              0.490

 Optimization completed.
    -- Stationary point found.
 Normal termination of Gaussian 16 at Sun Jul 21 12:34:02 2024.
 Gaussian 16:  ES64L-G16RevA.03 25-Dec-2016

 ----------------------------------------------------------------------
 # TD(NStates=10, Root=1) B3LYP/6-31G** SCRF=(Solvent=water) volume pop
 =NPA density=current Geom=AllCheck Guess=Read
 ----------------------------------------------------------------------

 Structure from the checkpoint file:  "YBRVSVVVWCFQMG-UHFFFAOYSA-N_conf_0_2.chk"
 ----------------------------------
 YBRVSVVVWCFQMG-UHFFFAOYSA-N_conf_0
 ----------------------------------
 Charge =  0 Multiplicity = 1

                         Standard orientation:
 ---------------------------------------------------------------------
 Center     Atomic      Atomic             Coordinates (Angstroms)
 Number     Number       Type             X           Y           Z
 ---------------------------------------------------------------------
      1          7           0       -4.886103   -1.337787    0.098548
      2          6           0       -3.678661   -0.632871    0.064815
      3          6           0       -3.403387    0.284763   -0.962213
      4          6           0       -2.225217    1.032288   -0.949243
      5          6           0       -1.279894    0.898695    0.074315
      6          6           0       -0.000837    1.721565    0.087205
      7          6           0        1.277652    0.901688    0.017887
      8          6           0        2.196797    0.888932    1.073491
      9          6           0        3.374173    0.142631    1.012365
     10          6           0        3.674594   -0.626235   -0.123984
     11          7           0        4.819657   -1.427854   -0.170492
     12          6           0        2.755764   -0.617700   -1.191039
     13          6           0        1.585089    0.130324   -1.113463
     14          6           0       -1.560734   -0.023212    1.094366
     15          6           0       -2.732020   -0.774242    1.097570
     16          1           0       -5.316972   -1.472746   -0.807647
     17          1           0       -4.846800   -2.210935    0.609513
     18          1           0       -4.117077    0.411610   -1.772532
     19          1           0       -2.040429    1.735841   -1.757849
     20          1           0        0.031122    2.336623    0.995324
     21          1           0       -0.033336    2.424821   -0.754223
     22          1           0        1.995343    1.480705    1.963541
     23          1           0        4.067783    0.154593    1.849498
     24          1           0        5.154982   -1.625184   -1.105184
     25          1           0        5.576956   -1.109400    0.421243
     26          1           0        2.967445   -1.202923   -2.082671
     27          1           0        0.894018    0.115533   -1.953086
     28          1           0       -0.844791   -0.160627    1.901308
     29          1           0       -2.923034   -1.478180    1.903942
 ---------------------------------------------------------------------

 SCF Done:  E(RB3LYP) =  -613.362097082     A.U. after    1 cycles

 Excitation energies and oscillator strengths:

 Excited State   1:      Singlet-A      4.6066 eV  269.14 nm  f=0.1441  <S**2>=0.000
      50 -> 57         0.10255
      51 -> 56        -0.12394
      52 -> 55        -0.18503
      53 -> 54         0.62853
      53 -> 55         0.18361
 This state for optimization and/or second-order correction.
 Total Energy, E(TD-HF/TD-DFT) =  -613.192806684
 Copying the excited state density for this state as the 1-particle RhoCI density.

 Excited State   2:      Singlet-A      4.6290 eV  267.84 nm  f=0.0358  <S**2>=0.000
      50 -> 56         0.12199
      51 -> 57        -0.10306
      52 -> 54        -0.19138
      53 -> 54        -0.18045
      53 -> 55         0.62585

 Excited State   3:      Singlet-A      4.9222 eV  251.89 nm  f=0.0092  <S**2>=0.000
      52 -> 54         0.65048
      53 -> 54        -0.16205
      53 -> 55         0.17207

 Excited State   4:      Singlet-A      4.9337 eV  251.30 nm  f=0.0310  <S**2>=0.000
      52 -> 55         0.65065
      53 -> 54         0.15773
      53 -> 55         0.15601
      53 -> 56        -0.11675

 Excited State   5:      Singlet-A      5.0635 eV  244.86 nm  f=0.5478  <S**2>=0.000
      52 -> 55         0.10676
      53 -> 56         0.68942

 Excited State   6:      Singlet-A      5.3224 eV  232.95 nm  f=0.0086  <S**2>=0.000
      52 -> 56         0.55685
      53 -> 57         0.42066

 Excited State   7:      Singlet-A      5.5818 eV  222.12 nm  f=0.1828  <S**2>=0.000
      50 -> 54        -0.14115
      51 -> 55         0.15409
      52 -> 56        -0.40088
      53 -> 57         0.53459

 Excited State   8:      Singlet-A      5.6589 eV  219.10 nm  f=0.2610  <S**2>=0.000
      52 -> 57         0.68948

 Excited State   9:      Singlet-A      6.1523 eV  201.53 nm  f=0.0139  <S**2>=0.000
      50 -> 54        -0.35152
      50 -> 55         0.16195
      51 -> 54         0.52672
      51 -> 55        -0.25601

 Excited State  10:      Singlet-A      6.1636 eV  201.16 nm  f=0.0130  <S**2>=0.000
      50 -> 54         0.24231
      50 -> 55         0.52330
      51 -> 54         0.17598
      51 -> 55         0.35979

 The electronic state is 1-A.
 Alpha  occ. eigenvalues --  -14.33478 -14.33468 -10.22471 -10.22455 -10.18619
 Alpha  occ. eigenvalues --  -10.18420 -10.18411 -10.18378 -10.18364 -10.18341
 Alpha  occ. eigenvalues --  -10.18325 -10.18093 -10.18077 -10.17985 -10.17973
 Alpha  occ. eigenvalues --   -0.91186  -0.91164  -0.84422  -0.82899  -0.76505
 Alpha  occ. eigenvalues --   -0.73908  -0.73809  -0.71662  -0.66108  -0.61050
 Alpha  occ. eigenvalues --   -0.60588  -0.58757  -0.56758  -0.51384  -0.50946
 Alpha  occ. eigenvalues --   -0.50422  -0.49874  -0.46254  -0.45343  -0.43865
 Alpha  occ. eigenvalues --   -0.42575  -0.42246  -0.41550  -0.41201  -0.40874
 Alpha  occ. eigenvalues --   -0.38230  -0.38073  -0.36870  -0.35792  -0.34356
 Alpha  occ. eigenvalues --   -0.33298  -0.32649  -0.30224  -0.29594  -0.24737
 Alpha  occ. eigenvalues --   -0.24695  -0.20393  -0.19402
 Alpha virt. eigenvalues --   -0.00014   0.00028   0.01209   0.02476   0.09491
 Alpha virt. eigenvalues --    0.09511   0.10409   0.11661   0.12487   0.13188
 Alpha virt. eigenvalues --    0.14158   0.15361   0.16842   0.17292   0.17983

 Mulliken charges:
               1
     1  N   -0.628708
     2  C    0.254974
     3  C   -0.134918
     4  C   -0.188948
     5  C    0.139566
     6  C   -0.311270
     7  C    0.141913
     8  C   -0.195434
     9  C   -0.141262
    10  C    0.253972
    11  N   -0.622893
    12  C   -0.153332
    13  C   -0.164723
    14  C   -0.155813
    15  C   -0.147528
    16  H    0.293169
    17  H    0.292516
    18  H    0.087479
    19  H    0.079466
    20  H    0.117442
    21  H    0.116690
    22  H    0.074469
    23  H    0.082234
    24  H    0.293694
    25  H    0.294531
    26  H    0.079019
    27  H    0.077299
    28  H    0.081844
    29  H    0.084551
 Sum of Mulliken charges =  -0.00000

 Dipole moment (field-independent basis, Debye):
    X=              0.8108    Y=             -2.6852    Z=             -1.2892  Tot=              3.0870
 Quadrupole moment (field-independent basis, Debye-Ang):
   XX=            -46.9530   YY=            -83.9536   ZZ=            -83.1062
   XY=              7.4519   XZ=              3.1981   YZ=              1.2707

 Summary of Natural Population Analysis:

                                       Natural Population
                Natural  -----------------------------------------------
    Atom  No    Charge         Core      Valence    Rydberg      Total
 -----------------------------------------------------------------------
      N    1   -0.78055      1.99950     5.76997    0.01108     7.78055
      C    2    0.17839      1.99898     3.80500    0.01762     5.82161
      C    3   -0.30081      1.99905     4.28610    0.01567     6.30081
      C    4   -0.29278      1.99905     4.27746    0.01628     6.29278
      C    5   -0.00568      1.99900     3.98999    0.01669     6.00568
      C    6   -0.49360      1.99921     4.47980    0.01459     6.49360
      C    7    0.00161      1.99900     3.98262    0.01676     5.99839
      C    8   -0.30622      1.99905     4.29012    0.01706     6.30622
      C    9   -0.31206      1.99905     4.29654    0.01647     6.31206
      C   10    0.17976      1.99898     3.80351    0.01776     5.82024
      N   11   -0.76966      1.99949     5.75920    0.01097     7.76966
      C   12   -0.34016      1.99905     4.32416    0.01694     6.34016
      C   13   -0.27309      1.99904     4.25794    0.01610     6.27309
      C   14   -0.25741      1.99904     4.24297    0.01540     6.25741
      C   15   -0.32923      1.99905     4.31394    0.01623     6.32923
      H   16    0.42187      0.00000     0.57553    0.00259     0.57813
      H   17    0.42128      0.00000     0.57588    0.00284     0.57872
      H   18    0.23939      0.00000     0.75894    0.00166     0.76061
      H   19    0.23680      0.00000     0.76156    0.00164     0.76320
      H   20    0.25884      0.00000     0.73901    0.00215     0.74116
      H   21    0.25885      0.00000     0.73885    0.00230     0.74115
      H   22    0.23429      0.00000     0.76404    0.00167     0.76571
      H   23    0.23667      0.00000     0.76161    0.00171     0.76333
      H   24    0.42170      0.00000     0.57540    0.00290     0.57830
      H   25    0.42229      0.00000     0.57505    0.00265     0.57771
      H   26    0.23580      0.00000     0.76254    0.00166     0.76420
      H   27    0.23627      0.00000     0.76156    0.00217     0.76373
      H   28    0.23882      0.00000     0.75874    0.00244     0.76118
      H   29    0.23861      0.00000     0.75975    0.00165     0.76139
 =======================================================================
   * Total *    0.00000     29.98653    75.74780    0.26567   106.00000

 Normal termination of Gaussian 16 at Sun Jul 21 12:51:01 2024.
