 Gaussian 16, Revision A.03,

 -------------------------------------------------------
 # opt=CalcFc B3LYP/6-31G** SCRF=(Solvent=water) scf=xqc
 -------------------------------------------------------

 ----------------------------------
 YBRVSVVVWCFQMG-UHFFFAOYSA-N_conf_2
 ----------------------------------
 Symbolic Z-matrix:
 Charge =  0 Multiplicity = 1

 SCF Done:  E(RB3LYP) =  -613.358841543     A.U. after   11 cycles
 SCF Done:  E(RB3LYP) =  -613.362010730     A.U. after   10 cycles
 SCF Done:  E(RB3LYP) =  -613.362092491     A.U. after   10 cycles
 SCF Done:  E(RB3LYP) =  -613.362090603     A.U. after    9 cycles
 SCF Done:  E(RB3LYP) =  -613.362091770     A.U. after    9 cycles
 SCF Done:  E(RB3LYP) =  -613.362092885     A.U. after    7 cycles
 SCF Done:  E(RB3LYP) =  -613.362092969     A.U. after    7 cycles
 Optimization completed.
    -- Stationary point found.
 Normal termination of Gaussian 16 at Sun Jul 21 12:22:11 2024.

 ----------------------------------------------------------------------
 # freq B3LYP/6-31G** SCRF=(Solvent=water) volume NMR pop=NPA density=c
 urrent Geom=AllCheck Guess=Read
 ----------------------------------------------------------------------

 Structure from the checkpoint file:  "YBRVSVVVWCFQMG-UHFFFAOYSA-N_conf_2_1.chk"
 ----------------------------------
 YBRVSVVVWCFQMG-UHFFFAOYSA-N_conf_2
 ----------------------------------
 Charge =  0 Multiplicity = 1

 SCF Done:  E(RB3LYP) =  -613.362092969     A.U. after    1 cycles

      1  N    Isotropic =   200.7901   Anisotropy =    74.9803

      2  C    Isotropic =    51.7328   Anisotropy =   160.1684

      3  C    Isotropic =    82.0374   Anisotropy =   130.4549

      4  C    Isotropic =    66.9914   Anisotropy =   162.2206

      5  C    Isotropic =    64.3638   Anisotropy =   169.3316

      6  C    Isotropic =   149.2137   Anisotropy =    22.2784

      7  C    Isotropic =    64.3638   Anisotropy =   169.3317

      8  C    Isotropic =    66.9913   Anisotropy =   162.2206

      9  C    Isotropic =    82.0374   Anisotropy =   130.4549

     10  C    Isotropic =    51.7328   Anisotropy =   160.1684

     11  N    Isotropic =   200.7901   Anisotropy =    74.9803

     12  C    Isotropic =    83.7517   Anisotropy =   127.4090

     13  C    Isotropic =    66.8608   Anisotropy =   144.3470

     14  C    Isotropic =    66.8608   Anisotropy =   144.3470

     15  C    Isotropic =    83.7517   Anisotropy =   127.4090

     16  H    Isotropic =    28.6770   Anisotropy =    12.0847

     17  H    Isotropic =    28.7177   Anisotropy =    12.0675

     18  H    Isotropic =    25.2040   Anisotropy =     6.1138

     19  H    Isotropic =    24.8233   Anisotropy =     9.1842

     20  H    Isotropic =    28.2432   Anisotropy =     6.2988

     21  H    Isotropic =    28.2432   Anisotropy =     6.2988

     22  H    Isotropic =    24.8233   Anisotropy =     9.1842

     23  H    Isotropic =    25.2040   Anisotropy =     6.1138

     24  H    Isotropic =    28.6770   Anisotropy =    12.0847

     25  H    Isotropic =    28.7177   Anisotropy =    12.0675

     26  H    Isotropic =    25.2109   Anisotropy =     5.3465

     27  H    Isotropic =    24.6094   Anisotropy =     6.2019

     28  H    Isotropic =    24.6094   Anisotropy =     6.2019

     29  H    Isotropic =    25.2109   Anisotropy =     5.3465

  Exact polarizability: 257.631  -0.000 152.748  32.050  -0.000 177.144
 Approx polarizability: 285.620  -0.000 186.839  39.424  -0.000 222.547

                      1                      2                      3
                      A                      A                      A
 Frequencies --     20.7699                23.1464                43.4511
 Red. masses --      3.8627                 3.5402                 4.9834
 Frc consts  --      0.0010                 0.0011                 0.0055
 IR Inten    --      0.2731                 0.4312                 0.1188

                      4                      5                      6
                      A                      A                      A
 Frequencies --    124.7274               158.4165               239.3632
 Red. masses --      4.6653                 5.1854                 4.8873
 Frc consts  --      0.0428                 0.0767                 0.1650
 IR Inten    --      8.6014                 0.4037                 0.2307

                      7                      8                      9
                      A                      A                      A
 Frequencies --    297.0177               313.0283               313.1006
 Red. masses --      3.0783                 1.0465                 1.0441
 Frc consts  --      0.1600                 0.0604                 0.0603
 IR Inten    --      5.8669                58.4005                13.2472

                     10                     11                     12
                      A                      A                      A
 Frequencies --    329.1271               334.7391               403.0617
 Red. masses --      4.9496                 2.7919                 3.0796
 Frc consts  --      0.3159                 0.1843                 0.2948
 IR Inten    --      0.2814                 6.0567                 0.3877

                     13                     14                     15
                      A                      A                      A
 Frequencies --    409.2580               419.7521               419.8035
 Red. masses --      2.5706                 3.1198                 3.1180
 Frc consts  --      0.2537                 0.3239                 0.3238
 IR Inten    --      0.0208                 0.2430                 1.2198

                     16                     17                     18
                      A                      A                      A
 Frequencies --    493.1570               494.0781               516.9185
 Red. masses --      3.2084                 5.6410                 2.1842
 Frc consts  --      0.4597                 0.8113                 0.3439
 IR Inten    --      1.8610                15.2731               181.8291

                     19                     20                     21
                      A                      A                      A
 Frequencies --    583.6821               624.6171               624.9969
 Red. masses --      3.0662                 1.5458                 1.4800
 Frc consts  --      0.6155                 0.3553                 0.3406
 IR Inten    --     18.5515                 8.9786              1024.0860

                     22                     23                     24
                      A                      A                      A
 Frequencies --    654.8827               657.3347               718.7112
 Red. masses --      6.6570                 6.1153                 3.1413
 Frc consts  --      1.6821                 1.5568                 0.9560
 IR Inten    --      0.2067                 8.4321                 1.2931

                     25                     26                     27
                      A                      A                      A
 Frequencies --    722.7814               777.0543               790.9573
 Red. masses --      3.7081                 3.2800                 3.3360
 Frc consts  --      1.1413                 1.1669                 1.2296
 IR Inten    --     33.9286                17.0912                 4.3776

                     28                     29                     30
                      A                      A                      A
 Frequencies --    829.5484               831.9827               832.9575
 Red. masses --      1.6162                 1.2550                 1.3013
 Frc consts  --      0.6553                 0.5118                 0.5320
 IR Inten    --    106.1808                 0.4057                16.6406

                     31                     32                     33
                      A                      A                      A
 Frequencies --    848.4372               859.5912               860.8171
 Red. masses --      3.3188                 4.9062                 2.5291
 Frc consts  --      1.4076                 2.1359                 1.1042
 IR Inten    --     27.4136                 2.5951                12.6850

                     34                     35                     36
                      A                      A                      A
 Frequencies --    925.3844               953.1478               955.5245
 Red. masses --      1.6126                 1.3261                 1.4074
 Frc consts  --      0.8136                 0.7098                 0.7571
 IR Inten    --      3.3962                 0.0967                 1.4918

                     37                     38                     39
                      A                      A                      A
 Frequencies --    957.7788               958.4884              1029.4642
 Red. masses --      1.3165                 1.3438                 2.8625
 Frc consts  --      0.7116                 0.7274                 1.7874
 IR Inten    --      0.0001                 0.5122                 0.0727

                     40                     41                     42
                      A                      A                      A
 Frequencies --   1029.6861              1090.9545              1097.9956
 Red. masses --      2.7802                 1.4996                 1.4293
 Frc consts  --      1.7368                 1.0516                 1.0153
 IR Inten    --      6.0294                 1.6976                 5.7685

                     43                     44                     45
                      A                      A                      A
 Frequencies --   1153.0784              1155.4236              1199.9166
 Red. masses --      1.2105                 1.2034                 1.1583
 Frc consts  --      0.9483                 0.9466                 0.9826
 IR Inten    --      8.3850                31.8925                 2.3758

                     46                     47                     48
                      A                      A                      A
 Frequencies --   1204.8283              1206.9770              1218.6391
 Red. masses --      1.1213                 1.1637                 3.1875
 Frc consts  --      0.9590                 0.9988                 2.7891
 IR Inten    --     34.5016                 4.5149                 0.3376

                     49                     50                     51
                      A                      A                      A
 Frequencies --   1229.6807              1306.8663              1310.2898
 Red. masses --      2.3542                 3.0332                 3.1327
 Frc consts  --      2.0974                 3.0522                 3.1688
 IR Inten    --      5.6393               164.7549                72.0901

                     52                     53                     54
                      A                      A                      A
 Frequencies --   1316.3923              1360.1346              1364.8870
 Red. masses --      2.0318                 1.3059                 1.5141
 Frc consts  --      2.0744                 1.4233                 1.6619
 IR Inten    --     33.8880                 4.9624                 1.8442

                     55                     56                     57
                      A                      A                      A
 Frequencies --   1367.3175              1367.4529              1475.9056
 Red. masses --      4.0992                 2.6900                 1.9920
 Frc consts  --      4.5154                 2.9636                 2.5566
 IR Inten    --      7.7374                41.7474                 0.5210

                     58                     59                     60
                      A                      A                      A
 Frequencies --   1476.0802              1489.4426              1555.6810
 Red. masses --      2.8347                 1.2849                 2.5911
 Frc consts  --      3.6390                 1.6794                 3.6947
 IR Inten    --      0.9877                 7.9119               232.4437

                     61                     62                     63
                      A                      A                      A
 Frequencies --   1558.7199              1625.2838              1629.0150
 Red. masses --      2.6066                 6.0600                 5.8513
 Frc consts  --      3.7313                 9.4316                 9.1486
 IR Inten    --     73.8738                 6.2591                 5.5509

                     64                     65                     66
                      A                      A                      A
 Frequencies --   1655.4440              1656.2115              1670.6479
 Red. masses --      1.3224                 1.2557                 3.3825
 Frc consts  --      2.1353                 2.0294                 5.5624
 IR Inten    --      8.8014                53.5367               211.9977

                     67                     68                     69
                      A                      A                      A
 Frequencies --   1673.2120              3025.5343              3063.1425
 Red. masses --      3.9622                 1.0599                 1.1034
 Frc consts  --      6.5356                 5.7162                 6.0997
 IR Inten    --    124.7099                71.9644                34.3714

                     70                     71                     72
                      A                      A                      A
 Frequencies --   3166.3260              3166.4077              3168.0499
 Red. masses --      1.0868                 1.0869                 1.0866
 Frc consts  --      6.4198                 6.4203                 6.4257
 IR Inten    --     45.0645                25.2355                 7.8354

                     73                     74                     75
                      A                      A                      A
 Frequencies --   3168.1818              3182.0788              3182.2680
 Red. masses --      1.0867                 1.0944                 1.0944
 Frc consts  --      6.4268                 6.5289                 6.5297
 IR Inten    --     17.1957                21.4325               119.0228

                     76                     77                     78
                      A                      A                      A
 Frequencies --   3185.5284              3186.0341              3556.0992
 Red. masses --      1.0946                 1.0947                 1.0486
 Frc consts  --      6.5446                 6.5469                 7.8130
 IR Inten    --      6.5678                 0.6241                20.5926

                     79                     80                     81
                      A                      A                      A
 Frequencies --   3556.1325              3656.6959              3656.6960
 Red. masses --      1.0486                 1.0979                 1.0979
 Frc consts  --      7.8133                 8.6491                 8.6491
 IR Inten    --     33.9397                25.0641                16.0162

 - Thermochemistry -
 -------------------
 Temperature   298.150 Kelvin.  Pressure   1.00000 Atm.
 Atom     1 has atomic number  7 and mass  14.00307

 Molecular mass:   198.11570 amu.
 Principal axes and moments of inertia in atomic units:
                           1         2         3
     Eigenvalues --  1155.453547050.814667234.31495
           X            0.99999  -0.00000   0.00493
           Y            0.00000   1.00000  -0.00000
           Z           -0.00493   0.00000   0.99999
 This molecule is an asymmetric top.
 Rotational symmetry number  1.
 Warning -- assumption of classical behavior for rotation
           may cause significant error
 Rotational temperatures (Kelvin)      0.07496     0.01228     0.01197
 Rotational constants (GHZ):           1.56193     0.25596     0.24947
 Zero-point vibrational energy     638305.8 (Joules/Mol)
                                  152.55875 (Kcal/Mol)
 Warning -- explicit consideration of  19 degrees of freedom as
           vibrations may cause significant error
 Vibrational temperatures:     29.88    33.30    62.52   179.45   227.93
          (Kelvin)            344.39   427.34   450.38   450.48   473.54
                              481.61   579.92   588.83   603.93   604.00
                              709.54   710.87   743.73   839.79   898.68
                              899.23   942.23   945.76  1034.07  1039.92
                             1118.01  1138.01  1193.54  1197.04  1198.44
                             1220.71  1236.76  1238.52  1331.42  1371.37
                             1374.79  1378.03  1379.05  1481.17  1481.49
                             1569.64  1579.77  1659.02  1662.40  1726.41
                             1733.48  1736.57  1753.35  1769.24  1880.29
                             1885.21  1893.99  1956.93  1963.77  1967.26
                             1967.46  2123.50  2123.75  2142.98  2238.28
                             2242.65  2338.42  2343.79  2381.81  2382.92
                             2403.69  2407.38  4353.07  4407.18  4555.64
                             4555.75  4558.12  4558.31  4578.30  4578.57
                             4583.26  4583.99  5116.43  5116.48  5261.17
                             5261.17

 Zero-point correction=                           0.243118 (Hartree/Particle)
 Thermal correction to Energy=                    0.256329
 Thermal correction to Enthalpy=                  0.257273
 Thermal correction to Gibbs Free Energy=         0.201515
 Sum of electronic and zero-point Energies=           -613.118975
 Sum of electronic and thermal Energies=              -613.105764
 Sum of electronic and thermal Enthalpies=            -613.104820
 Sum of electronic and thermal Free Energies=         -613.160578

                     E (Thermal)             CV                S
                      KCal/Mol        Cal/Mol-Kelvin    Cal/Mol-Kelvin
 Total                  160.849             52.933            117.354
 Electronic               0.000              0.000              0.000
 Translational            0.889              2.981             41.756
 Rotational               0.889              2.981             32.444
 Vibrational            159.071             46.971             43.154
 Vibration     1          0.593              1.986              6.559
 Vibration     2          0.593              1.985              6.344
 Vibration     3          0.595              1.980              5.095
 Vibration     4          0.610              1.928              3.026
 Vibration     5          0.621              1.893              2.569
 Vibration     6          0.657              1.780              1.808
 Vibration     7          0.691              1.679              1.434
 Vibration     8          0.701              1.649              1.346
 Vibration     9          0.701              1.649              1.346
 Vibration    10          0.712              1.617              1.264
 Vibration    11          0.716              1.606              1.237
 Vibration    12          0.768              1.464              0.951
 Vibration    13          0.774              1.450              0.929
 Vibration    14          0.782              1.427              0.893
 Vibration    15          0.782              1.427              0.893
 Vibration    16          0.849              1.265              0.675
 Vibration    17          0.850              1.263              0.673
 Vibration    18          0.872              1.213              0.617
 Vibration    19          0.941              1.067              0.479

 Optimization completed.
    -- Stationary point found.
 Normal termination of Gaussian 16 at Sun Jul 21 12:38:24 2024.
 Gaussian 16:  ES64L-G16RevA.03 25-Dec-2016

 ----------------------------------------------------------------------
 # TD(NStates=10, Root=1) B3LYP/6-31G** SCRF=(Solvent=water) volume pop
 =NPA density=current Geom=AllCheck Guess=Read
 ----------------------------------------------------------------------

 Structure from the checkpoint file:  "YBRVSVVVWCFQMG-UHFFFAOYSA-N_conf_2_2.chk"
 ----------------------------------
 YBRVSVVVWCFQMG-UHFFFAOYSA-N_conf_2
 ----------------------------------
 Charge =  0 Multiplicity = 1

                         Standard orientation:
 ---------------------------------------------------------------------
 Center     Atomic      Atomic             Coordinates (Angstroms)
 Number     Number       Type             X           Y           Z
 ---------------------------------------------------------------------
      1          7           0       -4.892502   -1.323190    0.176398
      2          6           0       -3.683555   -0.623841    0.103826
      3          6           0       -2.722069   -0.736969    1.126361
      4          6           0       -1.548488    0.009218    1.082740
      5          6           0       -1.279694    0.898143    0.030578
      6          6           0       -0.000000    1.718709    0.000007
      7          6           0        1.279694    0.898144   -0.030570
      8          6           0        1.548490    0.009233   -1.082743
      9          6           0        2.722072   -0.736954   -1.126370
     10          6           0        3.683556   -0.623840   -0.103832
     11          7           0        4.892502   -1.323188   -0.176409
     12          6           0        3.420618    0.260804    0.954837
     13          6           0        2.239783    1.003603    0.982503
     14          6           0       -2.239786    1.003616   -0.982491
     15          6           0       -3.420621    0.260816   -0.954832
     16          1           0       -5.337431   -1.482763   -0.718962
     17          1           0       -4.848354   -2.181323    0.711806
     18          1           0       -2.903199   -1.415209    1.956690
     19          1           0       -0.820968   -0.105932    1.882763
     20          1           0        0.034447    2.379693    0.875324
     21          1           0       -0.034447    2.379701   -0.875303
     22          1           0        0.820973   -0.105907   -1.882769
     23          1           0        2.903204   -1.415183   -1.956707
     24          1           0        5.337429   -1.482772    0.718951
     25          1           0        4.848355   -2.181314   -0.711828
     26          1           0        4.145720    0.364946    1.758211
     27          1           0        2.064406    1.680818    1.815327
     28          1           0       -2.064410    1.680841   -1.815308
     29          1           0       -4.145725    0.364968   -1.758203
 ---------------------------------------------------------------------

 SCF Done:  E(RB3LYP) =  -613.362092969     A.U. after    1 cycles

 Excitation energies and oscillator strengths:

 Excited State   1:      Singlet-A      4.5868 eV  270.31 nm  f=0.1381  <S**2>=0.000
      50 -> 57        -0.10062
      51 -> 56        -0.12434
      52 -> 55         0.17498
      53 -> 54         0.66379
 This state for optimization and/or second-order correction.
 Total Energy, E(TD-HF/TD-DFT) =  -613.193530271
 Copying the excited state density for this state as the 1-particle RhoCI density.

 Excited State   2:      Singlet-A      4.6511 eV  266.57 nm  f=0.0420  <S**2>=0.000
      50 -> 56        -0.12954
      51 -> 57        -0.10774
      52 -> 54         0.24246
      53 -> 55         0.63633

 Excited State   3:      Singlet-A      4.9089 eV  252.57 nm  f=0.0003  <S**2>=0.000
      52 -> 54         0.64228
      53 -> 55        -0.27204

 Excited State   4:      Singlet-A      4.9551 eV  250.21 nm  f=0.0339  <S**2>=0.000
      52 -> 55         0.65471
      53 -> 54        -0.19597
      53 -> 56         0.14917

 Excited State   5:      Singlet-A      5.0837 eV  243.88 nm  f=0.5506  <S**2>=0.000
      52 -> 55        -0.13644
      53 -> 56         0.68477

 Excited State   6:      Singlet-A      5.3254 eV  232.82 nm  f=0.0018  <S**2>=0.000
      52 -> 56         0.51582
      53 -> 57        -0.47086

 Excited State   7:      Singlet-A      5.5698 eV  222.60 nm  f=0.1815  <S**2>=0.000
      50 -> 54         0.14777
      51 -> 55         0.15027
      52 -> 56         0.45320
      53 -> 57         0.49127

 Excited State   8:      Singlet-A      5.6367 eV  219.96 nm  f=0.2794  <S**2>=0.000
      52 -> 57         0.68957

 Excited State   9:      Singlet-A      6.1555 eV  201.42 nm  f=0.0367  <S**2>=0.000
      50 -> 55        -0.42985
      51 -> 54         0.55601

 Excited State  10:      Singlet-A      6.1588 eV  201.31 nm  f=0.0084  <S**2>=0.000
      50 -> 54         0.50847
      51 -> 55        -0.48477

 The electronic state is 1-A.
 Alpha  occ. eigenvalues --  -14.33474 -14.33474 -10.22462 -10.22462 -10.18621
 Alpha  occ. eigenvalues --  -10.18413 -10.18412 -10.18368 -10.18368 -10.18330
 Alpha  occ. eigenvalues --  -10.18330 -10.18082 -10.18082 -10.17975 -10.17975
 Alpha  occ. eigenvalues --   -0.91184  -0.91166  -0.84422  -0.82897  -0.76504
 Alpha  occ. eigenvalues --   -0.73898  -0.73816  -0.71660  -0.66110  -0.61017
 Alpha  occ. eigenvalues --   -0.60624  -0.58758  -0.56746  -0.51396  -0.50939
 Alpha  occ. eigenvalues --   -0.50393  -0.49904  -0.46245  -0.45333  -0.43848
 Alpha  occ. eigenvalues --   -0.42654  -0.42194  -0.41564  -0.41194  -0.40876
 Alpha  occ. eigenvalues --   -0.38451  -0.37472  -0.36866  -0.36356  -0.34128
 Alpha  occ. eigenvalues --   -0.33315  -0.32654  -0.30175  -0.29630  -0.24765
 Alpha  occ. eigenvalues --   -0.24665  -0.20394  -0.19400
 Alpha virt. eigenvalues --   -0.00094   0.00127   0.01273   0.02382   0.09369
 Alpha virt. eigenvalues --    0.09667   0.10590   0.11510   0.12573   0.13078
 Alpha virt. eigenvalues --    0.14106   0.15348   0.17127   0.17312   0.17831

 Mulliken charges:
               1
     1  N   -0.625919
     2  C    0.255502
     3  C   -0.151431
     4  C   -0.161290
     5  C    0.141968
     6  C   -0.310845
     7  C    0.141968
     8  C   -0.161290
     9  C   -0.151432
    10  C    0.255502
    11  N   -0.625919
    12  C   -0.138855
    13  C   -0.193054
    14  C   -0.193054
    15  C   -0.138855
    16  H    0.293685
    17  H    0.293117
    18  H    0.081658
    19  H    0.079280
    20  H    0.118570
    21  H    0.118570
    22  H    0.079280
    23  H    0.081658
    24  H    0.293685
    25  H    0.293117
    26  H    0.084835
    27  H    0.077357
    28  H    0.077358
    29  H    0.084835
 Sum of Mulliken charges =  -0.00000

 Dipole moment (field-independent basis, Debye):
    X=             -0.0000    Y=             -4.5625    Z=             -0.0000  Tot=              4.5625
 Quadrupole moment (field-independent basis, Debye-Ang):
   XX=            -58.8566   YY=            -77.2101   ZZ=            -84.2682
   XY=             -0.0001   XZ=              9.5971   YZ=              0.0000

 Summary of Natural Population Analysis:

                                       Natural Population
                Natural  -----------------------------------------------
    Atom  No    Charge         Core      Valence    Rydberg      Total
 -----------------------------------------------------------------------
      N    1   -0.77544      1.99949     5.76494    0.01101     7.77544
      C    2    0.18101      1.99897     3.80234    0.01768     5.81899
      C    3   -0.33589      1.99905     4.32024    0.01659     6.33589
      C    4   -0.26762      1.99904     4.25263    0.01595     6.26762
      C    5   -0.00058      1.99900     3.98489    0.01669     6.00058
      C    6   -0.49416      1.99921     4.48034    0.01461     6.49416
      C    7   -0.00058      1.99900     3.98489    0.01669     6.00058
      C    8   -0.26762      1.99904     4.25263    0.01595     6.26762
      C    9   -0.33589      1.99905     4.32024    0.01659     6.33589
      C   10    0.18101      1.99897     3.80234    0.01768     5.81899
      N   11   -0.77544      1.99949     5.76494    0.01101     7.77544
      C   12   -0.30826      1.99905     4.29310    0.01611     6.30826
      C   13   -0.29851      1.99905     4.28277    0.01670     6.29851
      C   14   -0.29851      1.99905     4.28277    0.01670     6.29851
      C   15   -0.30826      1.99905     4.29310    0.01611     6.30826
      H   16    0.42200      0.00000     0.57536    0.00264     0.57800
      H   17    0.42154      0.00000     0.57559    0.00287     0.57846
      H   18    0.23721      0.00000     0.76114    0.00165     0.76279
      H   19    0.23775      0.00000     0.75998    0.00227     0.76225
      H   20    0.25999      0.00000     0.73775    0.00226     0.74001
      H   21    0.25999      0.00000     0.73775    0.00226     0.74001
      H   22    0.23775      0.00000     0.75998    0.00227     0.76225
      H   23    0.23721      0.00000     0.76114    0.00165     0.76279
      H   24    0.42200      0.00000     0.57536    0.00264     0.57800
      H   25    0.42154      0.00000     0.57559    0.00287     0.57846
      H   26    0.23811      0.00000     0.76021    0.00168     0.76189
      H   27    0.23579      0.00000     0.76257    0.00164     0.76421
      H   28    0.23579      0.00000     0.76257    0.00164     0.76421
      H   29    0.23811      0.00000     0.76021    0.00168     0.76189
 =======================================================================
   * Total *   -0.00000     29.98654    75.74736    0.26610   106.00000

 Normal termination of Gaussian 16 at Sun Jul 21 12:54:22 2024.
