 Gaussian 16, Revision A.03,

 -------------------------------------------------------
 # opt=CalcFc B3LYP/6-31G** SCRF=(Solvent=water) scf=xqc
 -------------------------------------------------------

 ----------------------------------
 OXIKYYJDTWKERT-OCAPTIKFSA-N_conf_0
 ----------------------------------
 Symbolic Z-matrix:
 Charge =  0 Multiplicity = 1

 SCF Done:  E(RB3LYP) =  -425.214316041     A.U. after   11 cycles
 SCF Done:  E(RB3LYP) =  -425.217527775     A.U. after    9 cycles
 SCF Done:  E(RB3LYP) =  -425.217732612     A.U. after    9 cycles
 SCF Done:  E(RB3LYP) =  -425.217748641     A.U. after    8 cycles
 SCF Done:  E(RB3LYP) =  -425.217750473     A.U. after    7 cycles
 SCF Done:  E(RB3LYP) =  -425.217750513     A.U. after    6 cycles
 Optimization completed.
    -- Stationary point found.
 Normal termination of Gaussian 16 at Thu Jul 18 17:06:29 2024.

 ----------------------------------------------------------------------
 # freq B3LYP/6-31G** SCRF=(Solvent=water) volume NMR pop=NPA density=c
 urrent Geom=AllCheck Guess=Read
 ----------------------------------------------------------------------

 Structure from the checkpoint file:  "OXIKYYJDTWKERT-OCAPTIKFSA-N_conf_0_1.chk"
 ----------------------------------
 OXIKYYJDTWKERT-OCAPTIKFSA-N_conf_0
 ----------------------------------
 Charge =  0 Multiplicity = 1

 SCF Done:  E(RB3LYP) =  -425.217750513     A.U. after    1 cycles

      1  N    Isotropic =   234.5379   Anisotropy =    31.1728

      2  C    Isotropic =   139.2285   Anisotropy =    28.4038

      3  C    Isotropic =   155.5456   Anisotropy =    17.0820

      4  C    Isotropic =   161.3820   Anisotropy =    15.3111

      5  C    Isotropic =   167.1895   Anisotropy =    11.5037

      6  C    Isotropic =   156.3337   Anisotropy =    15.8745

      7  C    Isotropic =   144.2717   Anisotropy =    18.2871

      8  N    Isotropic =   241.6335   Anisotropy =    27.4969

      9  C    Isotropic =   166.1205   Anisotropy =    14.6602

     10  C    Isotropic =   164.2551   Anisotropy =    17.3969

     11  H    Isotropic =    31.1732   Anisotropy =    15.9734

     12  H    Isotropic =    31.7224   Anisotropy =    12.2237

     13  H    Isotropic =    29.5787   Anisotropy =     4.6031

     14  H    Isotropic =    28.7748   Anisotropy =     6.7432

     15  H    Isotropic =    30.1526   Anisotropy =     5.6466

     16  H    Isotropic =    30.4213   Anisotropy =     7.6827

     17  H    Isotropic =    29.7681   Anisotropy =     7.8165

     18  H    Isotropic =    30.1794   Anisotropy =     6.3790

     19  H    Isotropic =    30.5520   Anisotropy =     8.8523

     20  H    Isotropic =    30.1524   Anisotropy =     6.4536

     21  H    Isotropic =    28.7866   Anisotropy =     8.3293

     22  H    Isotropic =    29.3832   Anisotropy =     7.5562

     23  H    Isotropic =    31.6050   Anisotropy =    12.2191

     24  H    Isotropic =    31.3127   Anisotropy =    16.5081

     25  H    Isotropic =    30.4058   Anisotropy =     9.5115

     26  H    Isotropic =    29.5923   Anisotropy =     7.5745

     27  H    Isotropic =    30.5170   Anisotropy =     6.7229

     28  H    Isotropic =    30.5197   Anisotropy =     8.5854

  Exact polarizability: 137.806   0.987 119.213  -0.089   0.332 118.725
 Approx polarizability: 134.039   2.218 127.803  -1.036   0.279 134.078

                      1                      2                      3
                      A                      A                      A
 Frequencies --     52.4741                88.6961               128.4173
 Red. masses --      3.1248                 3.0439                 2.6509
 Frc consts  --      0.0051                 0.0141                 0.0258
 IR Inten    --      1.2048                 5.7886                 2.3885

                      4                      5                      6
                      A                      A                      A
 Frequencies --    146.7678               171.4397               215.2939
 Red. masses --      2.1192                 2.3806                 1.7275
 Frc consts  --      0.0269                 0.0412                 0.0472
 IR Inten    --      9.6104                 4.6738                21.7740

                      7                      8                      9
                      A                      A                      A
 Frequencies --    241.1777               254.1308               262.1832
 Red. masses --      1.2618                 1.1686                 2.9265
 Frc consts  --      0.0432                 0.0445                 0.1185
 IR Inten    --     48.1737                51.2484                 4.6685

                     10                     11                     12
                      A                      A                      A
 Frequencies --    320.1736               363.5524               420.2760
 Red. masses --      1.9559                 2.9690                 1.8787
 Frc consts  --      0.1181                 0.2312                 0.1955
 IR Inten    --     34.0511                 1.6968                 0.5277

                     13                     14                     15
                      A                      A                      A
 Frequencies --    451.0154               500.2493               552.4412
 Red. masses --      2.7140                 4.0951                 2.5349
 Frc consts  --      0.3253                 0.6038                 0.4558
 IR Inten    --     11.5760                 0.7471                 2.8363

                     16                     17                     18
                      A                      A                      A
 Frequencies --    616.4064               761.8198               775.1651
 Red. masses --      2.5341                 1.7549                 2.2222
 Frc consts  --      0.5673                 0.6001                 0.7867
 IR Inten    --     11.8000                 2.2617                 5.1997

                     19                     20                     21
                      A                      A                      A
 Frequencies --    843.4748               860.2683               890.7271
 Red. masses --      1.4178                 1.3305                 1.6374
 Frc consts  --      0.5943                 0.5801                 0.7654
 IR Inten    --     82.5654                38.3739                19.1661

                     22                     23                     24
                      A                      A                      A
 Frequencies --    898.4765               921.1327               933.8282
 Red. masses --      1.7004                 1.5174                 2.2224
 Frc consts  --      0.8087                 0.7586                 1.1418
 IR Inten    --    197.0030                 4.8378                27.4467

                     25                     26                     27
                      A                      A                      A
 Frequencies --    958.7053               985.7408               998.6733
 Red. masses --      2.0350                 2.0143                 2.1956
 Frc consts  --      1.1020                 1.1532                 1.2902
 IR Inten    --      6.4493                11.6894                 8.6218

                     28                     29                     30
                      A                      A                      A
 Frequencies --   1034.1520              1051.8646              1086.7840
 Red. masses --      1.6922                 1.8342                 2.1853
 Frc consts  --      1.0663                 1.1957                 1.5207
 IR Inten    --     26.6233                 1.0147                14.1316

                     31                     32                     33
                      A                      A                      A
 Frequencies --   1099.6339              1111.9560              1122.6537
 Red. masses --      1.7909                 2.2725                 1.6297
 Frc consts  --      1.2759                 1.6555                 1.2102
 IR Inten    --      5.6286                 3.1666                 0.6535

                     34                     35                     36
                      A                      A                      A
 Frequencies --   1127.3560              1143.5977              1178.6139
 Red. masses --      1.2236                 2.1218                 1.5322
 Frc consts  --      0.9162                 1.6350                 1.2540
 IR Inten    --      2.1281                 1.8277                 1.4212

                     37                     38                     39
                      A                      A                      A
 Frequencies --   1214.3504              1256.0136              1265.0496
 Red. masses --      1.5622                 1.2558                 1.2917
 Frc consts  --      1.3573                 1.1672                 1.2179
 IR Inten    --      0.6656                13.1971                 2.6643

                     40                     41                     42
                      A                      A                      A
 Frequencies --   1288.0767              1313.9212              1319.0708
 Red. masses --      1.3930                 1.1910                 1.2203
 Frc consts  --      1.3617                 1.2115                 1.2510
 IR Inten    --      2.4267                 1.3852                 1.2405

                     43                     44                     45
                      A                      A                      A
 Frequencies --   1335.4848              1340.5921              1345.5492
 Red. masses --      1.2609                 1.2725                 1.3003
 Frc consts  --      1.3250                 1.3474                 1.3871
 IR Inten    --      2.6207                 3.3197                 0.2910

                     46                     47                     48
                      A                      A                      A
 Frequencies --   1355.5937              1387.4672              1390.1096
 Red. masses --      1.2478                 1.3730                 1.4093
 Frc consts  --      1.3510                 1.5573                 1.6045
 IR Inten    --      3.5400                 1.8731                 5.3197

                     49                     50                     51
                      A                      A                      A
 Frequencies --   1400.6532              1406.7456              1429.6569
 Red. masses --      1.5278                 1.5466                 1.3692
 Frc consts  --      1.7660                 1.8032                 1.6488
 IR Inten    --      2.7300                 2.1225                19.2769

                     52                     53                     54
                      A                      A                      A
 Frequencies --   1432.6897              1491.6760              1494.4148
 Red. masses --      1.4672                 1.0813                 1.0795
 Frc consts  --      1.7744                 1.4176                 1.4204
 IR Inten    --     23.4500                 0.4023                 0.9641

                     55                     56                     57
                      A                      A                      A
 Frequencies --   1502.4975              1510.9831              1515.1950
 Red. masses --      1.0960                 1.0868                 1.0889
 Frc consts  --      1.4577                 1.4619                 1.4728
 IR Inten    --      1.2504                 3.2800                 2.7552

                     58                     59                     60
                      A                      A                      A
 Frequencies --   1521.2497              1653.9248              1657.9119
 Red. masses --      1.0911                 1.0873                 1.0864
 Frc consts  --      1.4877                 1.7523                 1.7594
 IR Inten    --      2.9446                34.6971                41.8220

                     61                     62                     63
                      A                      A                      A
 Frequencies --   2951.7748              2955.5929              2984.1783
 Red. masses --      1.0716                 1.0720                 1.0814
 Frc consts  --      5.5010                 5.5173                 5.6740
 IR Inten    --    145.2251               118.0416                26.2098

                     64                     65                     66
                      A                      A                      A
 Frequencies --   3005.3872              3018.3807              3023.8528
 Red. masses --      1.0831                 1.0636                 1.0609
 Frc consts  --      5.7641                 5.7093                 5.7152
 IR Inten    --     65.4602                47.6107                54.8673

                     67                     68                     69
                      A                      A                      A
 Frequencies --   3032.0540              3036.8506              3040.8654
 Red. masses --      1.0679                 1.0761                 1.0781
 Frc consts  --      5.7842                 5.8472                 5.8734
 IR Inten    --     71.7345                25.2717               134.5768

                     70                     71                     72
                      A                      A                      A
 Frequencies --   3051.9668              3057.4853              3062.5977
 Red. masses --      1.0898                 1.1029                 1.0971
 Frc consts  --      5.9807                 6.0744                 6.0626
 IR Inten    --     62.5874                65.6835                76.1820

                     73                     74                     75
                      A                      A                      A
 Frequencies --   3084.2939              3087.8292              3474.4296
 Red. masses --      1.1012                 1.1011                 1.0510
 Frc consts  --      6.1718                 6.1857                 7.4749
 IR Inten    --     73.2676               117.5738                 2.0679

                     76                     77                     78
                      A                      A                      A
 Frequencies --   3489.5979              3553.2050              3565.7769
 Red. masses --      1.0507                 1.0912                 1.0917
 Frc consts  --      7.5387                 8.1170                 8.1780
 IR Inten    --      0.7864                 0.2236                 0.0343

 - Thermochemistry -
 -------------------
 Temperature   298.150 Kelvin.  Pressure   1.00000 Atm.
 Atom     1 has atomic number  7 and mass  14.00307

 Molecular mass:   142.14700 amu.
 Principal axes and moments of inertia in atomic units:
                           1         2         3
     Eigenvalues --   557.246622879.548603131.30277
           X            0.99997  -0.00718   0.00173
           Y            0.00717   0.99995   0.00623
           Z           -0.00177  -0.00622   0.99998
 This molecule is an asymmetric top.
 Rotational symmetry number  1.
 Warning -- assumption of classical behavior for rotation
           may cause significant error
 Rotational temperatures (Kelvin)      0.15543     0.03008     0.02766
 Rotational constants (GHZ):           3.23868     0.62674     0.57635
 Zero-point vibrational energy     687101.0 (Joules/Mol)
                                  164.22108 (Kcal/Mol)
 Warning -- explicit consideration of  16 degrees of freedom as
           vibrations may cause significant error
 Vibrational temperatures:     75.50   127.61   184.76   211.17   246.66
          (Kelvin)            309.76   347.00   365.64   377.22   460.66
                              523.07   604.68   648.91   719.75   794.84
                              886.87  1096.09  1115.29  1213.57  1237.73
                             1281.56  1292.71  1325.30  1343.57  1379.36
                             1418.26  1436.87  1487.91  1513.40  1563.64
                             1582.13  1599.86  1615.25  1622.01  1645.38
                             1695.76  1747.18  1807.12  1820.12  1853.26
                             1890.44  1897.85  1921.46  1928.81  1935.95
                             1950.40  1996.26  2000.06  2015.23  2023.99
                             2056.96  2061.32  2146.19  2150.13  2161.76
                             2173.97  2180.03  2188.74  2379.63  2385.37
                             4246.95  4252.44  4293.57  4324.08  4342.78
                             4350.65  4362.45  4369.35  4375.13  4391.10
                             4399.04  4406.40  4437.61  4442.70  4998.93
                             5020.75  5112.27  5130.36

 Zero-point correction=                           0.261703 (Hartree/Particle)
 Thermal correction to Energy=                    0.272947
 Thermal correction to Enthalpy=                  0.273892
 Thermal correction to Gibbs Free Energy=         0.225049
 Sum of electronic and zero-point Energies=           -424.956048
 Sum of electronic and thermal Energies=              -424.944803
 Sum of electronic and thermal Enthalpies=            -424.943859
 Sum of electronic and thermal Free Energies=         -424.992702

                     E (Thermal)             CV                S
                      KCal/Mol        Cal/Mol-Kelvin    Cal/Mol-Kelvin
 Total                  171.277             42.846            102.799
 Electronic               0.000              0.000              0.000
 Translational            0.889              2.981             40.766
 Rotational               0.889              2.981             29.998
 Vibrational            169.500             36.884             32.035
 Vibration     1          0.596              1.977              4.722
 Vibration     2          0.602              1.957              3.689
 Vibration     3          0.611              1.925              2.970
 Vibration     4          0.617              1.906              2.714
 Vibration     5          0.626              1.878              2.420
 Vibration     6          0.645              1.818              1.998
 Vibration     7          0.658              1.777              1.794
 Vibration     8          0.665              1.756              1.702
 Vibration     9          0.669              1.742              1.647
 Vibration    10          0.706              1.635              1.309
 Vibration    11          0.737              1.547              1.107
 Vibration    12          0.783              1.426              0.891
 Vibration    13          0.810              1.359              0.793
 Vibration    14          0.856              1.249              0.658
 Vibration    15          0.908              1.134              0.539
 Vibration    16          0.976              0.997              0.422

 Optimization completed.
    -- Stationary point found.
 Normal termination of Gaussian 16 at Thu Jul 18 17:16:13 2024.
 Gaussian 16:  ES64L-G16RevA.03 25-Dec-2016

 ----------------------------------------------------------------------
 # TD(NStates=10, Root=1) B3LYP/6-31G** SCRF=(Solvent=water) volume pop
 =NPA density=current Geom=AllCheck Guess=Read
 ----------------------------------------------------------------------

 Structure from the checkpoint file:  "OXIKYYJDTWKERT-OCAPTIKFSA-N_conf_0_2.chk"
 ----------------------------------
 OXIKYYJDTWKERT-OCAPTIKFSA-N_conf_0
 ----------------------------------
 Charge =  0 Multiplicity = 1

                         Standard orientation:
 ---------------------------------------------------------------------
 Center     Atomic      Atomic             Coordinates (Angstroms)
 Number     Number       Type             X           Y           Z
 ---------------------------------------------------------------------
      1          7           0       -3.749559   -0.604672    0.262673
      2          6           0       -2.862573    0.421509   -0.309806
      3          6           0       -1.415349    0.251703    0.166577
      4          6           0       -0.835140   -1.143391   -0.185180
      5          6           0        0.702856   -1.135601   -0.343226
      6          6           0        1.364162   -0.123701    0.607168
      7          6           0        2.896964   -0.245136    0.645656
      8          7           0        3.514505   -0.019895   -0.671842
      9          6           0        0.900424    1.313781    0.259908
     10          6           0       -0.501020    1.355823   -0.388180
     11          1           0       -4.694826   -0.457368   -0.086402
     12          1           0       -3.812250   -0.455698    1.269194
     13          1           0       -2.892555    0.317186   -1.403039
     14          1           0       -3.189134    1.451849   -0.084587
     15          1           0       -1.422293    0.357173    1.263359
     16          1           0       -1.294187   -1.501209   -1.115552
     17          1           0       -1.125941   -1.861083    0.589119
     18          1           0        0.967300   -0.876519   -1.376604
     19          1           0        1.100307   -2.143405   -0.167233
     20          1           0        1.019977   -0.364090    1.623893
     21          1           0        3.158660   -1.224419    1.082448
     22          1           0        3.292717    0.516472    1.329358
     23          1           0        3.346668   -0.831541   -1.263001
     24          1           0        4.525111    0.022691   -0.559382
     25          1           0        0.902645    1.918779    1.175519
     26          1           0        1.631664    1.764267   -0.419460
     27          1           0       -0.415782    1.226341   -1.476062
     28          1           0       -0.954650    2.342630   -0.234885
 ---------------------------------------------------------------------

 SCF Done:  E(RB3LYP) =  -425.217750513     A.U. after    1 cycles

 Excitation energies and oscillator strengths:

 Excited State   1:      Singlet-A      7.3127 eV  169.55 nm  f=0.0246  <S**2>=0.000
      39 -> 41         0.50352
      39 -> 42        -0.27300
      39 -> 44        -0.14625
      40 -> 41         0.32279
      40 -> 42        -0.17575
 This state for optimization and/or second-order correction.
 Total Energy, E(TD-HF/TD-DFT) =  -424.949013228
 Copying the excited state density for this state as the 1-particle RhoCI density.

 Excited State   2:      Singlet-A      7.3725 eV  168.17 nm  f=0.0158  <S**2>=0.000
      39 -> 41        -0.16580
      39 -> 42        -0.31265
      40 -> 41         0.26867
      40 -> 42         0.50687
      40 -> 43         0.11597
      40 -> 44        -0.13364

 Excited State   3:      Singlet-A      7.9184 eV  156.58 nm  f=0.0031  <S**2>=0.000
      39 -> 41        -0.33453
      39 -> 42         0.12688
      39 -> 44        -0.12522
      40 -> 41         0.51288
      40 -> 42        -0.21316
      40 -> 44         0.19888

 Excited State   4:      Singlet-A      8.0475 eV  154.07 nm  f=0.0094  <S**2>=0.000
      39 -> 41         0.29807
      39 -> 42         0.44641
      39 -> 43        -0.21299
      39 -> 44         0.12836
      40 -> 41         0.19555
      40 -> 42         0.27308
      40 -> 43        -0.14103

 Excited State   5:      Singlet-A      8.3172 eV  149.07 nm  f=0.0104  <S**2>=0.000
      39 -> 43        -0.31668
      39 -> 46        -0.11583
      40 -> 42        -0.10207
      40 -> 43         0.57120
      40 -> 46         0.17166

 Excited State   6:      Singlet-A      8.3626 eV  148.26 nm  f=0.0171  <S**2>=0.000
      39 -> 42         0.14320
      39 -> 43         0.53437
      39 -> 44         0.19693
      39 -> 46        -0.10200
      40 -> 43         0.28965
      40 -> 44         0.12168

 Excited State   7:      Singlet-A      8.5324 eV  145.31 nm  f=0.0227  <S**2>=0.000
      39 -> 42        -0.15498
      39 -> 44        -0.29413
      40 -> 41        -0.12422
      40 -> 42         0.19791
      40 -> 44         0.55415

 Excited State   8:      Singlet-A      8.6063 eV  144.06 nm  f=0.0019  <S**2>=0.000
      39 -> 42        -0.24152
      39 -> 43        -0.13593
      39 -> 44         0.54037
      40 -> 42        -0.17181
      40 -> 44         0.27993

 Excited State   9:      Singlet-A      8.8867 eV  139.52 nm  f=0.1185  <S**2>=0.000
      39 -> 45         0.51730
      39 -> 47         0.16421
      39 -> 48         0.15819
      39 -> 49        -0.11313
      40 -> 45         0.33313
      40 -> 47         0.10550

 Excited State  10:      Singlet-A      8.9439 eV  138.62 nm  f=0.0117  <S**2>=0.000
      38 -> 41         0.68858

 The electronic state is 1-A.
 Alpha  occ. eigenvalues --  -14.30791 -14.30734 -10.19848 -10.19790 -10.17678
 Alpha  occ. eigenvalues --  -10.17592 -10.17087 -10.17047 -10.16954 -10.16729
 Alpha  occ. eigenvalues --   -0.87475  -0.87216  -0.81569  -0.74725  -0.72642
 Alpha  occ. eigenvalues --   -0.67010  -0.61746  -0.60345  -0.56947  -0.51561
 Alpha  occ. eigenvalues --   -0.48715  -0.48060  -0.46453  -0.44454  -0.43777
 Alpha  occ. eigenvalues --   -0.42959  -0.41238  -0.39958  -0.38613  -0.36253
 Alpha  occ. eigenvalues --   -0.36027  -0.34444  -0.34082  -0.33525  -0.32644
 Alpha  occ. eigenvalues --   -0.29325  -0.28778  -0.28491  -0.23374  -0.23332
 Alpha virt. eigenvalues --    0.07881   0.08647   0.10357   0.10853   0.13074
 Alpha virt. eigenvalues --    0.13694   0.14973   0.15578   0.16134   0.16320
 Alpha virt. eigenvalues --    0.17038   0.18110   0.18217   0.18410   0.20092

 Mulliken charges:
               1
     1  N   -0.642723
     2  C   -0.051510
     3  C   -0.053811
     4  C   -0.172894
     5  C   -0.128500
     6  C   -0.048573
     7  C   -0.108042
     8  N   -0.071930
     9  C   -0.161850
    10  C   -0.183682
    11  H    0.249784
    12  H    0.247126
    13  H    0.093984
    14  H    0.075083
    15  H    0.074826
    16  H    0.078805
    17  H    0.088342
    18  H    0.025875
    19  H    0.032183
    20  H    0.074680
    21  H    0.127069
    22  H    0.083758
    23  H    0.032193
    24  H    0.014332
    25  H    0.082444
    26  H    0.075670
    27  H    0.082311
    28  H    0.085052
 Sum of Mulliken charges =  -0.00000

 Dipole moment (field-independent basis, Debye):
    X=              0.2051    Y=              1.8145    Z=              1.4382  Tot=              2.3244
 Quadrupole moment (field-independent basis, Debye-Ang):
   XX=            -59.1619   YY=            -70.5927   ZZ=            -64.6919
   XY=             -4.3696   XZ=              0.2750   YZ=             -1.4546

 Summary of Natural Population Analysis:

                                       Natural Population
                Natural  -----------------------------------------------
    Atom  No    Charge         Core      Valence    Rydberg      Total
 -----------------------------------------------------------------------
      N    1   -0.92827      1.99968     5.91399    0.01460     7.92827
      C    2   -0.25264      1.99931     4.23844    0.01490     6.25264
      C    3   -0.27043      1.99921     4.25750    0.01372     6.27043
      C    4   -0.46709      1.99932     4.45287    0.01490     6.46709
      C    5   -0.48673      1.99930     4.47081    0.01662     6.48673
      C    6   -0.26519      1.99920     4.25288    0.01311     6.26519
      C    7   -0.34851      1.99923     4.33031    0.01897     6.34851
      N    8   -0.38019      1.99935     5.35960    0.02124     7.38019
      C    9   -0.45631      1.99931     4.44468    0.01232     6.45631
      C   10   -0.46753      1.99931     4.45625    0.01197     6.46753
      H   11    0.38972      0.00000     0.60761    0.00267     0.61028
      H   12    0.38200      0.00000     0.61503    0.00297     0.61800
      H   13    0.22033      0.00000     0.77724    0.00243     0.77967
      H   14    0.20413      0.00000     0.79329    0.00258     0.79587
      H   15    0.22890      0.00000     0.76575    0.00535     0.77110
      H   16    0.23007      0.00000     0.76640    0.00353     0.76993
      H   17    0.23691      0.00000     0.76037    0.00272     0.76309
      H   18    0.18691      0.00000     0.79059    0.02250     0.81309
      H   19    0.21010      0.00000     0.77141    0.01849     0.78990
      H   20    0.22879      0.00000     0.76060    0.01061     0.77121
      H   21    0.26660      0.00000     0.70575    0.02765     0.73340
      H   22    0.21441      0.00000     0.76273    0.02286     0.78559
      H   23    0.21317      0.00000     0.70897    0.07787     0.78683
      H   24    0.19334      0.00000     0.72628    0.08038     0.80666
      H   25    0.22826      0.00000     0.76442    0.00732     0.77174
      H   26    0.22499      0.00000     0.76792    0.00709     0.77501
      H   27    0.22339      0.00000     0.77022    0.00639     0.77661
      H   28    0.24075      0.00000     0.75628    0.00297     0.75925
 =======================================================================
   * Total *   -0.00014     19.99322    59.54818    0.45874    80.00014

 Normal termination of Gaussian 16 at Thu Jul 18 17:29:40 2024.
