 Gaussian 16, Revision A.03,

 -------------------------------------------------------
 # opt=CalcFc B3LYP/6-31G** SCRF=(Solvent=water) scf=xqc
 -------------------------------------------------------

 ----------------------------------
 NULAJYZBOLVQPQ-UHFFFAOYSA-N_conf_0
 ----------------------------------
 Symbolic Z-matrix:
 Charge =  0 Multiplicity = 1

 SCF Done:  E(RB3LYP) =  -575.230279437     A.U. after   13 cycles
 SCF Done:  E(RB3LYP) =  -575.236744603     A.U. after   11 cycles
 SCF Done:  E(RB3LYP) =  -575.238408926     A.U. after   12 cycles
 SCF Done:  E(RB3LYP) =  -575.239304231     A.U. after   13 cycles
 SCF Done:  E(RB3LYP) =  -575.242036741     A.U. after   11 cycles
 SCF Done:  E(RB3LYP) =  -575.242893951     A.U. after   13 cycles
 SCF Done:  E(RB3LYP) =  -575.243380644     A.U. after   12 cycles
 SCF Done:  E(RB3LYP) =  -575.243438886     A.U. after   10 cycles
 SCF Done:  E(RB3LYP) =  -575.243443319     A.U. after    8 cycles
 SCF Done:  E(RB3LYP) =  -575.243445045     A.U. after    8 cycles
 SCF Done:  E(RB3LYP) =  -575.243446026     A.U. after    7 cycles
 SCF Done:  E(RB3LYP) =  -575.243446267     A.U. after    7 cycles
 Optimization completed.
    -- Stationary point found.
 Normal termination of Gaussian 16 at Thu Jul 11 21:08:57 2024.

 ----------------------------------------------------------------------
 # freq B3LYP/6-31G** SCRF=(Solvent=water) volume NMR pop=NPA density=c
 urrent Geom=AllCheck Guess=Read
 ----------------------------------------------------------------------

 Structure from the checkpoint file:  "NULAJYZBOLVQPQ-UHFFFAOYSA-N_conf_0_1.chk"
 ----------------------------------
 NULAJYZBOLVQPQ-UHFFFAOYSA-N_conf_0
 ----------------------------------
 Charge =  0 Multiplicity = 1

 SCF Done:  E(RB3LYP) =  -575.243446267     A.U. after    1 cycles

      1  N    Isotropic =   238.5397   Anisotropy =    27.5554

      2  C    Isotropic =   147.6473   Anisotropy =    39.9613

      3  C    Isotropic =   144.4031   Anisotropy =    36.9395

      4  N    Isotropic =   188.5025   Anisotropy =    46.9950

      5  C    Isotropic =    52.2966   Anisotropy =   147.9138

      6  C    Isotropic =    72.3522   Anisotropy =   176.0183

      7  C    Isotropic =    75.4480   Anisotropy =   163.6715

      8  C    Isotropic =    72.5808   Anisotropy =   162.2470

      9  C    Isotropic =    70.8710   Anisotropy =   165.7382

     10  C    Isotropic =    68.0684   Anisotropy =   147.3990

     11  C    Isotropic =    62.5773   Anisotropy =   196.8096

     12  C    Isotropic =    79.0761   Anisotropy =   130.1348

     13  C    Isotropic =    69.5260   Anisotropy =   163.7168

     14  C    Isotropic =    90.3538   Anisotropy =   136.3992

     15  H    Isotropic =    31.3040   Anisotropy =    13.0886

     16  H    Isotropic =    30.8432   Anisotropy =    15.7291

     17  H    Isotropic =    28.8840   Anisotropy =     5.3922

     18  H    Isotropic =    28.3305   Anisotropy =     6.1102

     19  H    Isotropic =    28.6830   Anisotropy =     6.0132

     20  H    Isotropic =    28.6686   Anisotropy =     5.5042

     21  H    Isotropic =    27.9215   Anisotropy =    10.3688

     22  H    Isotropic =    23.7107   Anisotropy =    10.7696

     23  H    Isotropic =    24.1341   Anisotropy =     5.7573

     24  H    Isotropic =    24.1160   Anisotropy =     4.8479

     25  H    Isotropic =    23.9206   Anisotropy =     6.8046

     26  H    Isotropic =    24.4838   Anisotropy =     5.8556

     27  H    Isotropic =    24.2635   Anisotropy =     5.2272

     28  H    Isotropic =    25.0361   Anisotropy =     9.0579

  Exact polarizability: 259.847 -16.410 239.461   3.218  -1.140  76.925
 Approx polarizability: 293.266 -17.194 296.517   5.003  -0.987  94.451

                      1                      2                      3
                      A                      A                      A
 Frequencies --     45.5888                82.9919                88.0633
 Red. masses --      4.2748                 1.8477                 4.0254
 Frc consts  --      0.0052                 0.0075                 0.0184
 IR Inten    --      0.3639                 8.7226                 0.6798

                      4                      5                      6
                      A                      A                      A
 Frequencies --    128.8835               160.3975               193.3413
 Red. masses --      3.2045                 3.0578                 3.2965
 Frc consts  --      0.0314                 0.0464                 0.0726
 IR Inten    --      1.4728                 5.0619                 0.9486

                      7                      8                      9
                      A                      A                      A
 Frequencies --    227.8266               261.8362               270.5517
 Red. masses --      2.4024                 1.4404                 3.4895
 Frc consts  --      0.0735                 0.0582                 0.1505
 IR Inten    --     20.6168                51.2691                 4.8917

                     10                     11                     12
                      A                      A                      A
 Frequencies --    295.0759               397.6268               428.5009
 Red. masses --      3.8963                 3.6519                 2.7866
 Frc consts  --      0.1999                 0.3402                 0.3015
 IR Inten    --      0.4977                49.6344                35.2563

                     13                     14                     15
                      A                      A                      A
 Frequencies --    458.9289               482.6398               513.6210
 Red. masses --      2.8640                 3.5332                 3.7515
 Frc consts  --      0.3554                 0.4849                 0.5831
 IR Inten    --    122.6675                 0.9242                47.4657

                     16                     17                     18
                      A                      A                      A
 Frequencies --    519.0302               568.4976               586.8698
 Red. masses --      4.3935                 2.9498                 3.2423
 Frc consts  --      0.6973                 0.5617                 0.6579
 IR Inten    --     26.8393                53.1602                32.8103

                     19                     20                     21
                      A                      A                      A
 Frequencies --    634.4448               657.3342               744.5528
 Red. masses --      5.0647                 3.3817                 1.3760
 Frc consts  --      1.2011                 0.8609                 0.4494
 IR Inten    --      5.0909                17.4867                 2.0914

                     22                     23                     24
                      A                      A                      A
 Frequencies --    758.3655               788.4959               798.8776
 Red. masses --      4.2284                 1.6604                 4.8917
 Frc consts  --      1.4328                 0.6082                 1.8394
 IR Inten    --     10.0538                63.4582                 5.0738

                     25                     26                     27
                      A                      A                      A
 Frequencies --    800.5840               822.1304               864.3860
 Red. masses --      2.0196                 1.1305                 1.4722
 Frc consts  --      0.7626                 0.4502                 0.6481
 IR Inten    --     56.7590                15.4532                 5.2382

                     28                     29                     30
                      A                      A                      A
 Frequencies --    882.1631               886.4307               899.9351
 Red. masses --      1.6850                 2.9424                 1.4144
 Frc consts  --      0.7726                 1.3622                 0.6749
 IR Inten    --     14.0684                 9.3426               165.3789

                     31                     32                     33
                      A                      A                      A
 Frequencies --    960.2408               972.1339               995.1736
 Red. masses --      1.3389                 1.2700                 1.2752
 Frc consts  --      0.7274                 0.7072                 0.7441
 IR Inten    --      1.5160                 1.1502                 0.4398

                     34                     35                     36
                      A                      A                      A
 Frequencies --   1003.0436              1034.3886              1062.3399
 Red. masses --      1.9387                 4.3611                 2.3607
 Frc consts  --      1.1492                 2.7492                 1.5697
 IR Inten    --      2.6609                 3.4983                13.5128

                     37                     38                     39
                      A                      A                      A
 Frequencies --   1081.8180              1112.4625              1132.1941
 Red. masses --      2.7242                 2.0882                 1.7485
 Frc consts  --      1.8784                 1.5226                 1.3206
 IR Inten    --     27.4745                16.1024                23.0256

                     40                     41                     42
                      A                      A                      A
 Frequencies --   1141.2049              1171.5881              1190.6584
 Red. masses --      2.1399                 1.3090                 1.1703
 Frc consts  --      1.6420                 1.0586                 0.9775
 IR Inten    --     16.2628                 1.9126                 0.5895

                     43                     44                     45
                      A                      A                      A
 Frequencies --   1197.8261              1213.3282              1243.0182
 Red. masses --      1.2444                 1.6384                 2.2328
 Frc consts  --      1.0519                 1.4211                 2.0326
 IR Inten    --     47.5897                16.0587                15.1147

                     46                     47                     48
                      A                      A                      A
 Frequencies --   1282.1414              1291.4322              1313.1709
 Red. masses --      1.6285                 1.3155                 1.9991
 Frc consts  --      1.5772                 1.2926                 2.0310
 IR Inten    --     19.2646                35.2638                64.0982

                     49                     50                     51
                      A                      A                      A
 Frequencies --   1329.7921              1370.3195              1387.4239
 Red. masses --      1.1500                 1.4364                 2.3483
 Frc consts  --      1.1982                 1.5891                 2.6633
 IR Inten    --      6.3360                 9.8196                37.3368

                     52                     53                     54
                      A                      A                      A
 Frequencies --   1402.5455              1442.6619              1448.5927
 Red. masses --      6.0445                 2.1176                 1.6191
 Frc consts  --      7.0056                 2.5967                 2.0017
 IR Inten    --     35.3103                95.3761                43.4256

                     55                     56                     57
                      A                      A                      A
 Frequencies --   1476.5361              1500.1212              1516.1951
 Red. masses --      2.0543                 2.1145                 1.0863
 Frc consts  --      2.6388                 2.8036                 1.4713
 IR Inten    --      8.2222                 9.0503                16.3027

                     58                     59                     60
                      A                      A                      A
 Frequencies --   1525.7894              1533.9684              1569.2342
 Red. masses --      1.7897                 1.1138                 2.7781
 Frc consts  --      2.4548                 1.5441                 4.0306
 IR Inten    --    140.8107                16.2384               143.5961

                     61                     62                     63
                      A                      A                      A
 Frequencies --   1627.4882              1646.0707              1660.5259
 Red. masses --      6.6611                 4.8186                 1.0886
 Frc consts  --     10.3951                 7.6925                 1.7685
 IR Inten    --    154.9535                22.8436                41.3130

                     64                     65                     66
                      A                      A                      A
 Frequencies --   1672.7714              2978.6839              2989.1123
 Red. masses --      5.7189                 1.0698                 1.0668
 Frc consts  --      9.4284                 5.5925                 5.6157
 IR Inten    --     11.0320                32.6901               166.4076

                     67                     68                     69
                      A                      A                      A
 Frequencies --   3044.6531              3063.8015              3176.9101
 Red. masses --      1.0905                 1.0971                 1.0865
 Frc consts  --      5.9560                 6.0674                 6.4606
 IR Inten    --      3.5245               111.0028                 6.8223

                     70                     71                     72
                      A                      A                      A
 Frequencies --   3179.3168              3187.2441              3196.3239
 Red. masses --      1.0861                 1.0877                 1.0948
 Frc consts  --      6.4681                 6.5104                 6.5899
 IR Inten    --      6.2570                 6.0871                42.0020

                     73                     74                     75
                      A                      A                      A
 Frequencies --   3197.9413              3208.6667              3222.4963
 Red. masses --      1.0931                 1.0972                 1.0914
 Frc consts  --      6.5863                 6.6555                 6.6774
 IR Inten    --     68.4214                39.4551                23.9041

                     76                     77                     78
                      A                      A                      A
 Frequencies --   3486.7712              3565.6764              3593.5799
 Red. masses --      1.0514                 1.0912                 1.0751
 Frc consts  --      7.5313                 8.1744                 8.1801
 IR Inten    --      0.5165                 0.2926                18.8958

 - Thermochemistry -
 -------------------
 Temperature   298.150 Kelvin.  Pressure   1.00000 Atm.
 Atom     1 has atomic number  7 and mass  14.00307

 Molecular mass:   186.11570 amu.
 Principal axes and moments of inertia in atomic units:
                           1         2         3
     Eigenvalues --  1294.973734837.687306100.46520
           X            0.99998   0.00527   0.00206
           Y           -0.00527   0.99999  -0.00079
           Z           -0.00206   0.00078   1.00000
 This molecule is an asymmetric top.
 Rotational symmetry number  1.
 Warning -- assumption of classical behavior for rotation
           may cause significant error
 Rotational temperatures (Kelvin)      0.06688     0.01790     0.01420
 Rotational constants (GHZ):           1.39365     0.37306     0.29584
 Zero-point vibrational energy     627126.4 (Joules/Mol)
                                  149.88681 (Kcal/Mol)
 Warning -- explicit consideration of  18 degrees of freedom as
           vibrations may cause significant error
 Vibrational temperatures:     65.59   119.41   126.70   185.43   230.78
          (Kelvin)            278.18   327.79   376.72   389.26   424.55
                              572.10   616.52   660.30   694.41   738.99
                              746.77   817.94   844.37   912.82   945.76
                             1071.25  1091.12  1134.47  1149.41  1151.86
                             1182.86  1243.66  1269.24  1275.38  1294.81
                             1381.57  1398.68  1431.83  1443.16  1488.25
                             1528.47  1556.49  1600.59  1628.97  1641.94
                             1685.65  1713.09  1723.40  1745.71  1788.43
                             1844.72  1858.08  1889.36  1913.27  1971.58
                             1996.19  2017.95  2075.67  2084.20  2124.41
                             2158.34  2181.47  2195.27  2207.04  2257.78
                             2341.59  2368.33  2389.13  2406.74  4285.66
                             4300.67  4380.58  4408.13  4570.87  4574.33
                             4585.73  4598.80  4601.12  4616.56  4636.45
                             5016.69  5130.21  5170.36

 Zero-point correction=                           0.238860 (Hartree/Particle)
 Thermal correction to Energy=                    0.251186
 Thermal correction to Enthalpy=                  0.252130
 Thermal correction to Gibbs Free Energy=         0.199927
 Sum of electronic and zero-point Energies=           -575.004586
 Sum of electronic and thermal Energies=              -574.992261
 Sum of electronic and thermal Enthalpies=            -574.991316
 Sum of electronic and thermal Free Energies=         -575.043519

                     E (Thermal)             CV                S
                      KCal/Mol        Cal/Mol-Kelvin    Cal/Mol-Kelvin
 Total                  157.621             48.618            109.871
 Electronic               0.000              0.000              0.000
 Translational            0.889              2.981             41.570
 Rotational               0.889              2.981             32.014
 Vibrational            155.844             42.656             36.287
 Vibration     1          0.595              1.979              5.000
 Vibration     2          0.600              1.961              3.819
 Vibration     3          0.601              1.958              3.703
 Vibration     4          0.611              1.924              2.963
 Vibration     5          0.622              1.891              2.545
 Vibration     6          0.635              1.849              2.196
 Vibration     7          0.651              1.799              1.896
 Vibration     8          0.669              1.743              1.649
 Vibration     9          0.674              1.727              1.593
 Vibration    10          0.689              1.683              1.445
 Vibration    11          0.764              1.475              0.971
 Vibration    12          0.790              1.408              0.864
 Vibration    13          0.817              1.341              0.769
 Vibration    14          0.839              1.289              0.703
 Vibration    15          0.869              1.220              0.625
 Vibration    16          0.874              1.208              0.612
 Vibration    17          0.925              1.099              0.507
 Vibration    18          0.944              1.060              0.473

                           ! Non-Optimized Parameters !
 Normal termination of Gaussian 16 at Thu Jul 11 21:35:10 2024.
 Gaussian 16:  EM64L-G16RevA.03 25-Dec-2016

 ----------------------------------------------------------------------
 # TD(NStates=10, Root=1) B3LYP/6-31G** SCRF=(Solvent=water) volume pop
 =NPA density=current Geom=AllCheck Guess=Read
 ----------------------------------------------------------------------

 Structure from the checkpoint file:  "NULAJYZBOLVQPQ-UHFFFAOYSA-N_conf_0_2.chk"
 ----------------------------------
 NULAJYZBOLVQPQ-UHFFFAOYSA-N_conf_0
 ----------------------------------
 Charge =  0 Multiplicity = 1

                         Standard orientation:
 ---------------------------------------------------------------------
 Center     Atomic      Atomic             Coordinates (Angstroms)
 Number     Number       Type             X           Y           Z
 ---------------------------------------------------------------------
      1          7           0       -5.152959   -0.281829    0.111136
      2          6           0       -3.820334   -0.885987   -0.005304
      3          6           0       -2.748589    0.202500    0.066259
      4          7           0       -1.421410   -0.382219   -0.068731
      5          6           0       -0.277669    0.409605   -0.032566
      6          6           0        1.017010   -0.233567   -0.023280
      7          6           0        1.169555   -1.645320   -0.072549
      8          6           0        2.417097   -2.233656   -0.039160
      9          6           0        3.579539   -1.433071    0.039424
     10          6           0        3.467481   -0.060390    0.063408
     11          6           0        2.198119    0.579098    0.024242
     12          6           0        2.084316    1.996991    0.019467
     13          6           0        0.840256    2.580324   -0.028498
     14          6           0       -0.337267    1.798873   -0.045069
     15          1           0       -5.368673    0.215092   -0.751746
     16          1           0       -5.848027   -1.022369    0.173596
     17          1           0       -3.688179   -1.576899    0.836983
     18          1           0       -3.667305   -1.472593   -0.925664
     19          1           0       -2.867570    0.767688    1.004384
     20          1           0       -2.904674    0.912779   -0.755479
     21          1           0       -1.326374   -1.255923    0.432960
     22          1           0        0.295704   -2.281552   -0.167417
     23          1           0        2.506459   -3.314937   -0.082381
     24          1           0        4.558567   -1.902215    0.069182
     25          1           0        4.357591    0.561874    0.108237
     26          1           0        2.986529    2.600828    0.048784
     27          1           0        0.746458    3.662790   -0.035800
     28          1           0       -1.297019    2.301366   -0.050699
 ---------------------------------------------------------------------

 SCF Done:  E(RB3LYP) =  -575.243446267     A.U. after    1 cycles

 Excitation energies and oscillator strengths:

 Excited State   1:      Singlet-A      3.7265 eV  332.71 nm  f=0.2185  <S**2>=0.000
      50 -> 51         0.69825
 This state for optimization and/or second-order correction.
 Total Energy, E(TD-HF/TD-DFT) =  -575.106499909
 Copying the excited state density for this state as the 1-particle RhoCI density.

 Excited State   2:      Singlet-A      4.1875 eV  296.08 nm  f=0.1084  <S**2>=0.000
      48 -> 51         0.25961
      50 -> 52         0.64860

 Excited State   3:      Singlet-A      5.1253 eV  241.90 nm  f=0.6066  <S**2>=0.000
      47 -> 51        -0.13592
      47 -> 52        -0.24122
      48 -> 51         0.57819
      49 -> 51         0.12229
      50 -> 52        -0.24864

 Excited State   4:      Singlet-A      5.2491 eV  236.20 nm  f=0.0083  <S**2>=0.000
      47 -> 51         0.14478
      48 -> 51        -0.13545
      49 -> 51         0.66817

 Excited State   5:      Singlet-A      5.3179 eV  233.15 nm  f=0.0402  <S**2>=0.000
      47 -> 51         0.62007
      48 -> 51         0.13147
      48 -> 52         0.15132
      49 -> 51        -0.15373
      50 -> 53         0.19745

 Excited State   6:      Singlet-A      5.7016 eV  217.45 nm  f=0.1983  <S**2>=0.000
      46 -> 51         0.11843
      47 -> 51        -0.18535
      47 -> 52         0.21861
      50 -> 53         0.62197

 Excited State   7:      Singlet-A      5.9213 eV  209.39 nm  f=0.4116  <S**2>=0.000
      47 -> 52         0.26893
      48 -> 51         0.17021
      48 -> 52        -0.20928
      49 -> 52         0.55141
      50 -> 53        -0.15456

 Excited State   8:      Singlet-A      5.9570 eV  208.13 nm  f=0.4032  <S**2>=0.000
      47 -> 52         0.52077
      48 -> 51         0.16250
      48 -> 53        -0.10019
      49 -> 52        -0.39530
      50 -> 53        -0.11464

 Excited State   9:      Singlet-A      6.0977 eV  203.33 nm  f=0.4750  <S**2>=0.000
      47 -> 51        -0.13193
      47 -> 52         0.12398
      48 -> 52         0.64141
      49 -> 52         0.15788

 Excited State  10:      Singlet-A      6.6250 eV  187.15 nm  f=0.0147  <S**2>=0.000
      46 -> 51         0.21368
      48 -> 53         0.11627
      50 -> 54         0.50438
      50 -> 55        -0.40244

 The electronic state is 1-A.
 Alpha  occ. eigenvalues --  -14.34448 -14.31475 -10.22989 -10.21403 -10.21021
 Alpha  occ. eigenvalues --  -10.19788 -10.19727 -10.19193 -10.19010 -10.18944
 Alpha  occ. eigenvalues --  -10.18902 -10.18769 -10.17937 -10.17826  -0.93628
 Alpha  occ. eigenvalues --   -0.87979  -0.86114  -0.81297  -0.76787  -0.73827
 Alpha  occ. eigenvalues --   -0.72558  -0.69534  -0.62529  -0.62006  -0.59923
 Alpha  occ. eigenvalues --   -0.58108  -0.52775  -0.51010  -0.49599  -0.48809
 Alpha  occ. eigenvalues --   -0.47897  -0.46663  -0.43903  -0.42787  -0.42381
 Alpha  occ. eigenvalues --   -0.41555  -0.40601  -0.39598  -0.38839  -0.37542
 Alpha  occ. eigenvalues --   -0.37037  -0.35047  -0.33332  -0.33184  -0.32867
 Alpha  occ. eigenvalues --   -0.30180  -0.24944  -0.24325  -0.24242  -0.19019
 Alpha virt. eigenvalues --   -0.03264  -0.00839   0.04152   0.08268   0.09013
 Alpha virt. eigenvalues --    0.10244   0.10506   0.11757   0.13203   0.14284
 Alpha virt. eigenvalues --    0.14780   0.16413   0.17355   0.17710   0.18987

 Mulliken charges:
               1
     1  N   -0.640312
     2  C   -0.085999
     3  C   -0.031919
     4  N   -0.553556
     5  C    0.254051
     6  C    0.090317
     7  C   -0.227170
     8  C   -0.133289
     9  C   -0.112348
    10  C   -0.223465
    11  C    0.079249
    12  C   -0.124495
    13  C   -0.130887
    14  C   -0.100977
    15  H    0.260511
    16  H    0.264243
    17  H    0.123940
    18  H    0.108230
    19  H    0.141735
    20  H    0.144960
    21  H    0.298553
    22  H    0.063047
    23  H    0.069236
    24  H    0.070810
    25  H    0.060924
    26  H    0.108794
    27  H    0.104647
    28  H    0.121170
 Sum of Mulliken charges =  -0.00000

 Dipole moment (field-independent basis, Debye):
    X=             -7.4623    Y=              0.8814    Z=             -0.5529  Tot=              7.5345
 Quadrupole moment (field-independent basis, Debye-Ang):
   XX=            -74.2006   YY=            -75.5814   ZZ=            -87.4144
   XY=             10.8474   XZ=              6.3103   YZ=             -1.8519

 Summary of Natural Population Analysis:

                                       Natural Population
                Natural  -----------------------------------------------
    Atom  No    Charge         Core      Valence    Rydberg      Total
 -----------------------------------------------------------------------
      N    1   -0.92444      1.99968     5.91001    0.01475     7.92444
      C    2   -0.27325      1.99936     4.25981    0.01408     6.27325
      C    3   -0.29483      1.99932     4.28002    0.01549     6.29483
      N    4   -0.50357      1.99939     5.49203    0.01216     7.50357
      C    5    0.18557      1.99897     3.79721    0.01825     5.81443
      C    6   -0.05262      1.99900     4.03952    0.01410     6.05262
      C    7   -0.36142      1.99909     4.34482    0.01751     6.36142
      C    8   -0.27305      1.99911     4.25752    0.01641     6.27305
      C    9   -0.25727      1.99911     4.24327    0.01488     6.25727
      C   10   -0.34247      1.99908     4.32661    0.01678     6.34247
      C   11   -0.07194      1.99904     4.05773    0.01518     6.07194
      C   12   -0.16577      1.99905     4.15236    0.01436     6.16577
      C   13   -0.27255      1.99914     4.25780    0.01561     6.27255
      C   14   -0.22499      1.99908     4.21358    0.01234     6.22499
      H   15    0.39036      0.00000     0.60686    0.00278     0.60964
      H   16    0.39985      0.00000     0.59771    0.00244     0.60015
      H   17    0.23437      0.00000     0.76359    0.00204     0.76563
      H   18    0.21696      0.00000     0.78006    0.00298     0.78304
      H   19    0.24840      0.00000     0.74815    0.00344     0.75160
      H   20    0.24958      0.00000     0.74826    0.00215     0.75042
      H   21    0.43277      0.00000     0.56217    0.00505     0.56723
      H   22    0.22162      0.00000     0.77666    0.00173     0.77838
      H   23    0.23150      0.00000     0.76708    0.00141     0.76850
      H   24    0.23249      0.00000     0.76613    0.00138     0.76751
      H   25    0.22590      0.00000     0.77243    0.00167     0.77410
      H   26    0.24614      0.00000     0.75215    0.00171     0.75386
      H   27    0.25027      0.00000     0.74837    0.00136     0.74973
      H   28    0.25238      0.00000     0.74624    0.00138     0.74762
 =======================================================================
   * Total *    0.00000     27.98841    71.76815    0.24344   100.00000

 Normal termination of Gaussian 16 at Thu Jul 11 22:03:50 2024.
