 Gaussian 16, Revision A.03,

 -------------------------------------------------------
 # opt=CalcFc B3LYP/6-31G** SCRF=(Solvent=water) scf=xqc
 -------------------------------------------------------

 ----------------------------------
 NULAJYZBOLVQPQ-UHFFFAOYSA-N_conf_2
 ----------------------------------
 Symbolic Z-matrix:
 Charge =  0 Multiplicity = 1

 SCF Done:  E(RB3LYP) =  -575.231089850     A.U. after   13 cycles
 SCF Done:  E(RB3LYP) =  -575.238119977     A.U. after   11 cycles
 SCF Done:  E(RB3LYP) =  -575.238492878     A.U. after   10 cycles
 SCF Done:  E(RB3LYP) =  -575.238500769     A.U. after    9 cycles
 SCF Done:  E(RB3LYP) =  -575.238504016     A.U. after    8 cycles
 SCF Done:  E(RB3LYP) =  -575.238504045     A.U. after    6 cycles
 Optimization completed.
    -- Stationary point found.
 Normal termination of Gaussian 16 at Thu Jul 11 21:05:46 2024.

 ----------------------------------------------------------------------
 # freq B3LYP/6-31G** SCRF=(Solvent=water) volume NMR pop=NPA density=c
 urrent Geom=AllCheck Guess=Read
 ----------------------------------------------------------------------

 Structure from the checkpoint file:  "NULAJYZBOLVQPQ-UHFFFAOYSA-N_conf_2_1.chk"
 ----------------------------------
 NULAJYZBOLVQPQ-UHFFFAOYSA-N_conf_2
 ----------------------------------
 Charge =  0 Multiplicity = 1

 SCF Done:  E(RB3LYP) =  -575.238504045     A.U. after    1 cycles

      1  N    Isotropic =   239.3393   Anisotropy =    26.7429

      2  C    Isotropic =   147.4654   Anisotropy =    41.2097

      3  C    Isotropic =   139.0330   Anisotropy =    49.1289

      4  N    Isotropic =   191.6809   Anisotropy =    42.2774

      5  C    Isotropic =    50.1702   Anisotropy =   146.2459

      6  C    Isotropic =    69.2947   Anisotropy =   182.6227

      7  C    Isotropic =    71.6917   Anisotropy =   163.5697

      8  C    Isotropic =    72.1767   Anisotropy =   162.7779

      9  C    Isotropic =    70.7729   Anisotropy =   165.7490

     10  C    Isotropic =    67.7649   Anisotropy =   148.3924

     11  C    Isotropic =    61.8182   Anisotropy =   197.6995

     12  C    Isotropic =    74.1794   Anisotropy =   138.5531

     13  C    Isotropic =    70.5590   Anisotropy =   161.8263

     14  C    Isotropic =    77.8543   Anisotropy =   127.1239

     15  H    Isotropic =    31.9043   Anisotropy =    12.4074

     16  H    Isotropic =    31.1624   Anisotropy =    16.0195

     17  H    Isotropic =    28.8157   Anisotropy =     8.7247

     18  H    Isotropic =    29.3259   Anisotropy =     4.9173

     19  H    Isotropic =    28.5683   Anisotropy =     6.9147

     20  H    Isotropic =    28.3801   Anisotropy =     7.1377

     21  H    Isotropic =    28.7301   Anisotropy =    11.2513

     22  H    Isotropic =    23.3687   Anisotropy =    10.2213

     23  H    Isotropic =    24.0996   Anisotropy =     5.7076

     24  H    Isotropic =    24.1037   Anisotropy =     4.7960

     25  H    Isotropic =    23.8514   Anisotropy =     6.7051

     26  H    Isotropic =    24.2261   Anisotropy =     5.9914

     27  H    Isotropic =    24.3169   Anisotropy =     4.8229

     28  H    Isotropic =    24.7373   Anisotropy =     7.0409

  Exact polarizability: 219.961 -22.893 242.494  45.983  12.878 106.536
 Approx polarizability: 252.322 -27.180 297.342  62.066  18.709 132.235

                      1                      2                      3
                      A                      A                      A
 Frequencies --     38.3375                59.3820                79.4476
 Red. masses --      3.3106                 4.3443                 1.9862
 Frc consts  --      0.0029                 0.0090                 0.0074
 IR Inten    --      1.3047                 2.6301                 7.5536

                      4                      5                      6
                      A                      A                      A
 Frequencies --    122.5697               173.3370               206.8179
 Red. masses --      3.4398                 3.8776                 3.5857
 Frc consts  --      0.0304                 0.0686                 0.0904
 IR Inten    --      1.9607                 3.4570                 1.5234

                      7                      8                      9
                      A                      A                      A
 Frequencies --    236.8917               247.6695               300.2514
 Red. masses --      1.8284                 1.6761                 3.1511
 Frc consts  --      0.0605                 0.0606                 0.1674
 IR Inten    --     24.5065                45.6820                10.7868

                     10                     11                     12
                      A                      A                      A
 Frequencies --    316.1628               425.8211               456.7005
 Red. masses --      3.2240                 3.7650                 3.5620
 Frc consts  --      0.1899                 0.4022                 0.4377
 IR Inten    --      6.8665                 6.8322                10.1898

                     13                     14                     15
                      A                      A                      A
 Frequencies --    479.8419               487.2701               495.5857
 Red. masses --      3.6634                 4.5900                 4.3573
 Frc consts  --      0.4970                 0.6421                 0.6305
 IR Inten    --      8.3720                 1.9883                17.9573

                     16                     17                     18
                      A                      A                      A
 Frequencies --    536.8303               575.3777               599.9456
 Red. masses --      4.5138                 6.0962                 3.3986
 Frc consts  --      0.7664                 1.1891                 0.7207
 IR Inten    --      7.0675                 2.9795                 9.2514

                     19                     20                     21
                      A                      A                      A
 Frequencies --    670.1831               709.1583               747.6125
 Red. masses --      3.1560                 4.6922                 1.3155
 Frc consts  --      0.8352                 1.3903                 0.4332
 IR Inten    --      4.9367                13.4915                42.1099

                     22                     23                     24
                      A                      A                      A
 Frequencies --    757.2234               791.4757               796.5968
 Red. masses --      1.5530                 1.6806                 2.3135
 Frc consts  --      0.5246                 0.6203                 0.8650
 IR Inten    --     44.6869                46.3235                29.0590

                     25                     26                     27
                      A                      A                      A
 Frequencies --    810.8169               818.6435               880.4857
 Red. masses --      1.9059                 1.8670                 1.8147
 Frc consts  --      0.7382                 0.7372                 0.8289
 IR Inten    --    106.1599                12.7238                82.7769

                     28                     29                     30
                      A                      A                      A
 Frequencies --    883.3552               895.7985               900.8147
 Red. masses --      1.6546                 1.7192                 1.6339
 Frc consts  --      0.7607                 0.8128                 0.7812
 IR Inten    --     13.0033                90.5539                51.7687

                     31                     32                     33
                      A                      A                      A
 Frequencies --    969.7941               976.6548               979.4545
 Red. masses --      1.3335                 1.5874                 1.6587
 Frc consts  --      0.7389                 0.8921                 0.9375
 IR Inten    --      2.3652                14.0468                 5.4933

                     34                     35                     36
                      A                      A                      A
 Frequencies --    999.5750              1041.3985              1050.7719
 Red. masses --      1.2724                 3.0740                 2.4886
 Frc consts  --      0.7490                 1.9642                 1.6189
 IR Inten    --      0.7033                14.1163                11.3111

                     37                     38                     39
                      A                      A                      A
 Frequencies --   1069.7600              1083.8039              1123.2724
 Red. masses --      3.0941                 2.3864                 2.2956
 Frc consts  --      2.0862                 1.6515                 1.7065
 IR Inten    --     36.5926                 8.4854                53.5351

                     40                     41                     42
                      A                      A                      A
 Frequencies --   1126.4838              1169.9782              1176.1999
 Red. masses --      1.7647                 1.3383                 1.2231
 Frc consts  --      1.3194                 1.0793                 0.9969
 IR Inten    --      2.1896                 3.1004                10.1119

                     43                     44                     45
                      A                      A                      A
 Frequencies --   1190.2914              1209.8051              1244.6122
 Red. masses --      1.2096                 1.4880                 2.1051
 Frc consts  --      1.0097                 1.2832                 1.9213
 IR Inten    --      7.2760                 8.6629                 3.2969

                     46                     47                     48
                      A                      A                      A
 Frequencies --   1263.8625              1294.2380              1304.0386
 Red. masses --      1.6535                 1.5620                 1.5843
 Frc consts  --      1.5561                 1.5416                 1.5874
 IR Inten    --     43.4444                33.0000                54.0737

                     49                     50                     51
                      A                      A                      A
 Frequencies --   1335.1251              1369.5945              1380.2026
 Red. masses --      1.1705                 1.6623                 1.7677
 Frc consts  --      1.2294                 1.8372                 1.9840
 IR Inten    --      9.0638                 3.0189                 5.1496

                     52                     53                     54
                      A                      A                      A
 Frequencies --   1403.3291              1432.8538              1435.8011
 Red. masses --      8.3319                 1.7333                 1.6566
 Frc consts  --      9.6675                 2.0967                 2.0121
 IR Inten    --      3.9255                42.1149                44.7309

                     55                     56                     57
                      A                      A                      A
 Frequencies --   1469.1890              1492.8242              1501.0315
 Red. masses --      1.7968                 1.3005                 1.8998
 Frc consts  --      2.2851                 1.7076                 2.5220
 IR Inten    --     46.8023                 2.8390                28.1856

                     58                     59                     60
                      A                      A                      A
 Frequencies --   1518.4903              1525.3869              1560.7638
 Red. masses --      1.3272                 1.2102                 3.1113
 Frc consts  --      1.8030                 1.6590                 4.4655
 IR Inten    --     12.1305                 7.3148                21.5120

                     61                     62                     63
                      A                      A                      A
 Frequencies --   1623.4295              1645.6403              1657.3846
 Red. masses --      6.7945                 4.7896                 1.0938
 Frc consts  --     10.5506                 7.6423                 1.7702
 IR Inten    --     80.5278                31.3006                35.1677

                     64                     65                     66
                      A                      A                      A
 Frequencies --   1673.9319              2980.8341              3052.8133
 Red. masses --      5.8255                 1.0686                 1.0930
 Frc consts  --      9.6174                 5.5945                 6.0014
 IR Inten    --      6.3945                83.4235                50.4870

                     67                     68                     69
                      A                      A                      A
 Frequencies --   3060.4750              3114.8573              3175.9573
 Red. masses --      1.0617                 1.1043                 1.0867
 Frc consts  --      5.8589                 6.3125                 6.4583
 IR Inten    --     89.6114                55.7289                15.5909

                     70                     71                     72
                      A                      A                      A
 Frequencies --   3177.9276              3184.6958              3188.9018
 Red. masses --      1.0866                 1.0897                 1.0896
 Frc consts  --      6.4656                 6.5118                 6.5283
 IR Inten    --      1.6658                24.4110                26.2206

                     73                     74                     75
                      A                      A                      A
 Frequencies --   3200.8689              3202.9949              3221.2242
 Red. masses --      1.0971                 1.0954                 1.0933
 Frc consts  --      6.6229                 6.6209                 6.6839
 IR Inten    --     59.4362                38.3311                18.6769

                     76                     77                     78
                      A                      A                      A
 Frequencies --   3481.4882              3534.8770              3560.0313
 Red. masses --      1.0512                 1.0743                 1.0914
 Frc consts  --      7.5072                 7.9093                 8.1496
 IR Inten    --      1.1955                 5.1393                 0.1219

 - Thermochemistry -
 -------------------
 Temperature   298.150 Kelvin.  Pressure   1.00000 Atm.
 Atom     1 has atomic number  7 and mass  14.00307

 Molecular mass:   186.11570 amu.
 Principal axes and moments of inertia in atomic units:
                           1         2         3
     Eigenvalues --  1741.083173725.979964760.42316
           X            1.00000  -0.00088  -0.00094
           Y            0.00089   0.99999   0.00514
           Z            0.00094  -0.00514   0.99999
 This molecule is an asymmetric top.
 Rotational symmetry number  1.
 Warning -- assumption of classical behavior for rotation
           may cause significant error
 Rotational temperatures (Kelvin)      0.04975     0.02325     0.01819
 Rotational constants (GHZ):           1.03656     0.48437     0.37911
 Zero-point vibrational energy     627664.6 (Joules/Mol)
                                  150.01544 (Kcal/Mol)
 Warning -- explicit consideration of  18 degrees of freedom as
           vibrations may cause significant error
 Vibrational temperatures:     55.16    85.44   114.31   176.35   249.39
          (Kelvin)            297.56   340.83   356.34   431.99   454.89
                              612.66   657.09   690.39   701.07   713.04
                              772.38   827.84   863.19   964.24  1020.32
                             1075.65  1089.48  1138.76  1146.13  1166.58
                             1177.85  1266.82  1270.95  1288.85  1296.07
                             1395.32  1405.19  1409.22  1438.17  1498.34
                             1511.83  1539.15  1559.35  1616.14  1620.76
                             1683.34  1692.29  1712.56  1740.64  1790.72
                             1818.42  1862.12  1876.22  1920.95  1970.54
                             1985.80  2019.08  2061.56  2065.80  2113.84
                             2147.84  2159.65  2184.77  2194.69  2245.59
                             2335.75  2367.71  2384.61  2408.41  4288.76
                             4392.32  4403.34  4481.58  4569.49  4572.33
                             4582.07  4588.12  4605.34  4608.40  4634.62
                             5009.09  5085.90  5122.09

 Zero-point correction=                           0.239065 (Hartree/Particle)
 Thermal correction to Energy=                    0.251264
 Thermal correction to Enthalpy=                  0.252208
 Thermal correction to Gibbs Free Energy=         0.199931
 Sum of electronic and zero-point Energies=           -574.999439
 Sum of electronic and thermal Energies=              -574.987240
 Sum of electronic and thermal Enthalpies=            -574.986296
 Sum of electronic and thermal Free Energies=         -575.038573

                     E (Thermal)             CV                S
                      KCal/Mol        Cal/Mol-Kelvin    Cal/Mol-Kelvin
 Total                  157.670             48.189            110.025
 Electronic               0.000              0.000              0.000
 Translational            0.889              2.981             41.570
 Rotational               0.889              2.981             31.802
 Vibrational            155.893             42.228             36.654
 Vibration     1          0.594              1.982              5.343
 Vibration     2          0.597              1.974              4.478
 Vibration     3          0.600              1.963              3.904
 Vibration     4          0.610              1.930              3.059
 Vibration     5          0.627              1.875              2.399
 Vibration     6          0.641              1.830              2.072
 Vibration     7          0.656              1.784              1.826
 Vibration     8          0.661              1.767              1.747
 Vibration     9          0.693              1.673              1.416
 Vibration    10          0.703              1.643              1.330
 Vibration    11          0.788              1.414              0.872
 Vibration    12          0.815              1.346              0.776
 Vibration    13          0.836              1.295              0.710
 Vibration    14          0.843              1.278              0.691
 Vibration    15          0.851              1.260              0.669
 Vibration    16          0.892              1.169              0.572
 Vibration    17          0.932              1.085              0.494
 Vibration    18          0.958              1.032              0.450

 Optimization completed.
    -- Stationary point found.
 Normal termination of Gaussian 16 at Thu Jul 11 21:46:54 2024.
 Gaussian 16:  EM64L-G16RevA.03 25-Dec-2016

 ----------------------------------------------------------------------
 # TD(NStates=10, Root=1) B3LYP/6-31G** SCRF=(Solvent=water) volume pop
 =NPA density=current Geom=AllCheck Guess=Read
 ----------------------------------------------------------------------

 Structure from the checkpoint file:  "NULAJYZBOLVQPQ-UHFFFAOYSA-N_conf_2_2.chk"
 ----------------------------------
 NULAJYZBOLVQPQ-UHFFFAOYSA-N_conf_2
 ----------------------------------
 Charge =  0 Multiplicity = 1

                         Standard orientation:
 ---------------------------------------------------------------------
 Center     Atomic      Atomic             Coordinates (Angstroms)
 Number     Number       Type             X           Y           Z
 ---------------------------------------------------------------------
      1          7           0       -4.081738   -0.945445    1.220078
      2          6           0       -3.209092    0.011243    0.524215
      3          6           0       -2.369315   -0.720794   -0.530752
      4          7           0       -1.479834    0.154738   -1.317369
      5          6           0       -0.345357    0.718437   -0.684025
      6          6           0        0.772646   -0.118868   -0.336683
      7          6           0        0.825897   -1.502382   -0.661514
      8          6           0        1.906723   -2.278636   -0.301840
      9          6           0        2.995238   -1.707831    0.399992
     10          6           0        2.994168   -0.362750    0.693839
     11          6           0        1.903199    0.471476    0.322854
     12          6           0        1.930054    1.873015    0.559269
     13          6           0        0.879120    2.660989    0.149790
     14          6           0       -0.259326    2.083603   -0.456291
     15          1           0       -3.511738   -1.531788    1.828159
     16          1           0       -4.701199   -0.436169    1.846977
     17          1           0       -2.537094    0.573710    1.192554
     18          1           0       -3.846619    0.750036    0.022307
     19          1           0       -3.039791   -1.238085   -1.225391
     20          1           0       -1.763089   -1.488423   -0.041782
     21          1           0       -2.033720    0.890804   -1.746496
     22          1           0        0.012385   -1.939730   -1.228593
     23          1           0        1.929633   -3.331244   -0.568039
     24          1           0        3.838347   -2.329173    0.687316
     25          1           0        3.839549    0.088444    1.206792
     26          1           0        2.795401    2.308611    1.050658
     27          1           0        0.902672    3.734306    0.314876
     28          1           0       -1.097460    2.718638   -0.731415
 ---------------------------------------------------------------------

 SCF Done:  E(RB3LYP) =  -575.238504045     A.U. after    1 cycles

 Excitation energies and oscillator strengths:

 Excited State   1:      Singlet-A      3.8106 eV  325.37 nm  f=0.2012  <S**2>=0.000
      50 -> 51         0.69745
 This state for optimization and/or second-order correction.
 Total Energy, E(TD-HF/TD-DFT) =  -575.098467949
 Copying the excited state density for this state as the 1-particle RhoCI density.

 Excited State   2:      Singlet-A      4.2619 eV  290.91 nm  f=0.0625  <S**2>=0.000
      48 -> 51        -0.31870
      50 -> 52         0.62339

 Excited State   3:      Singlet-A      4.9376 eV  251.10 nm  f=0.0186  <S**2>=0.000
      47 -> 51        -0.16515
      48 -> 51         0.19951
      49 -> 51         0.64268

 Excited State   4:      Singlet-A      5.0729 eV  244.40 nm  f=0.4306  <S**2>=0.000
      47 -> 51        -0.21747
      47 -> 52         0.16321
      48 -> 51         0.50432
      49 -> 51        -0.23874
      49 -> 52        -0.18926
      50 -> 52         0.26771

 Excited State   5:      Singlet-A      5.1644 eV  240.08 nm  f=0.1386  <S**2>=0.000
      47 -> 51         0.62104
      47 -> 52         0.11241
      48 -> 51         0.15444
      48 -> 52        -0.11179
      49 -> 51         0.12139
      49 -> 52        -0.13606
      50 -> 52         0.14255

 Excited State   6:      Singlet-A      5.5542 eV  223.22 nm  f=0.1260  <S**2>=0.000
      46 -> 51        -0.18670
      47 -> 52         0.11687
      49 -> 52        -0.19022
      50 -> 53         0.63322

 Excited State   7:      Singlet-A      5.7374 eV  216.10 nm  f=0.6745  <S**2>=0.000
      47 -> 51         0.11477
      48 -> 51         0.23128
      49 -> 52         0.59845
      50 -> 53         0.19826

 Excited State   8:      Singlet-A      5.8600 eV  211.58 nm  f=0.2592  <S**2>=0.000
      47 -> 52         0.59926
      48 -> 51        -0.12010
      48 -> 52        -0.22611
      49 -> 52         0.21004

 Excited State   9:      Singlet-A      6.0690 eV  204.29 nm  f=0.3742  <S**2>=0.000
      47 -> 52         0.24656
      48 -> 52         0.63011

 Excited State  10:      Singlet-A      6.3689 eV  194.67 nm  f=0.0677  <S**2>=0.000
      46 -> 51         0.62999
      47 -> 53         0.10116
      49 -> 53        -0.15121
      50 -> 53         0.18696

 The electronic state is 1-A.
 Alpha  occ. eigenvalues --  -14.33599 -14.31261 -10.22572 -10.21000 -10.20371
 Alpha  occ. eigenvalues --  -10.19879 -10.19788 -10.19071 -10.19011 -10.18996
 Alpha  occ. eigenvalues --  -10.18979 -10.18923 -10.18498 -10.18433  -0.92591
 Alpha  occ. eigenvalues --   -0.87601  -0.86109  -0.81473  -0.76457  -0.73897
 Alpha  occ. eigenvalues --   -0.72605  -0.69014  -0.62298  -0.61752  -0.60128
 Alpha  occ. eigenvalues --   -0.58303  -0.52105  -0.50953  -0.49494  -0.48235
 Alpha  occ. eigenvalues --   -0.47858  -0.45979  -0.43985  -0.42432  -0.41711
 Alpha  occ. eigenvalues --   -0.41113  -0.40473  -0.39757  -0.38835  -0.37894
 Alpha  occ. eigenvalues --   -0.37114  -0.34864  -0.33635  -0.33012  -0.32565
 Alpha  occ. eigenvalues --   -0.29362  -0.24882  -0.24414  -0.23900  -0.19723
 Alpha virt. eigenvalues --   -0.03671  -0.01014   0.03409   0.08680   0.09050
 Alpha virt. eigenvalues --    0.09715   0.10943   0.11393   0.13960   0.14155
 Alpha virt. eigenvalues --    0.15624   0.16573   0.17117   0.18058   0.18680

 Mulliken charges:
               1
     1  N   -0.630627
     2  C   -0.064662
     3  C   -0.067345
     4  N   -0.500142
     5  C    0.173976
     6  C    0.111388
     7  C   -0.210255
     8  C   -0.126829
     9  C   -0.116710
    10  C   -0.210199
    11  C    0.081176
    12  C   -0.138718
    13  C   -0.121249
    14  C   -0.118532
    15  H    0.263357
    16  H    0.267983
    17  H    0.109759
    18  H    0.121675
    19  H    0.136856
    20  H    0.137051
    21  H    0.296983
    22  H    0.076938
    23  H    0.073364
    24  H    0.073038
    25  H    0.066449
    26  H    0.101595
    27  H    0.102855
    28  H    0.110824
 Sum of Mulliken charges =  -0.00000

 Dipole moment (field-independent basis, Debye):
    X=             -5.9958    Y=              3.2181    Z=              0.6598  Tot=              6.8368
 Quadrupole moment (field-independent basis, Debye-Ang):
   XX=            -79.3850   YY=            -78.4711   ZZ=            -80.2583
   XY=             -2.5566   XZ=              0.1308   YZ=             -1.4837

 Summary of Natural Population Analysis:

                                       Natural Population
                Natural  -----------------------------------------------
    Atom  No    Charge         Core      Valence    Rydberg      Total
 -----------------------------------------------------------------------
      N    1   -0.91414      1.99966     5.89997    0.01451     7.91414
      C    2   -0.27589      1.99933     4.26315    0.01340     6.27589
      C    3   -0.28657      1.99929     4.27151    0.01577     6.28657
      N    4   -0.50484      1.99944     5.49220    0.01320     7.50484
      C    5    0.13936      1.99891     3.84179    0.01993     5.86064
      C    6   -0.05403      1.99898     4.04067    0.01439     6.05403
      C    7   -0.33933      1.99909     4.32318    0.01706     6.33933
      C    8   -0.26233      1.99911     4.24753    0.01569     6.26233
      C    9   -0.26452      1.99911     4.25046    0.01495     6.26452
      C   10   -0.32199      1.99907     4.30676    0.01615     6.32199
      C   11   -0.06260      1.99904     4.04860    0.01496     6.06260
      C   12   -0.19434      1.99905     4.18046    0.01483     6.19434
      C   13   -0.26716      1.99912     4.25268    0.01536     6.26716
      C   14   -0.23478      1.99903     4.22176    0.01399     6.23478
      H   15    0.39177      0.00000     0.60544    0.00280     0.60823
      H   16    0.40270      0.00000     0.59477    0.00254     0.59730
      H   17    0.21995      0.00000     0.77751    0.00254     0.78005
      H   18    0.23465      0.00000     0.76322    0.00213     0.76535
      H   19    0.25536      0.00000     0.74202    0.00263     0.74464
      H   20    0.24713      0.00000     0.75017    0.00270     0.75287
      H   21    0.42307      0.00000     0.57328    0.00365     0.57693
      H   22    0.23115      0.00000     0.76699    0.00186     0.76885
      H   23    0.23322      0.00000     0.76537    0.00141     0.76678
      H   24    0.23351      0.00000     0.76511    0.00138     0.76649
      H   25    0.22832      0.00000     0.77000    0.00168     0.77168
      H   26    0.24374      0.00000     0.75448    0.00178     0.75626
      H   27    0.24973      0.00000     0.74891    0.00136     0.75027
      H   28    0.24885      0.00000     0.74963    0.00153     0.75115
 =======================================================================
   * Total *   -0.00000     27.98823    71.76759    0.24418   100.00000

 Normal termination of Gaussian 16 at Thu Jul 11 22:19:09 2024.
