 Gaussian 16, Revision A.03,

 -------------------------------------------------------
 # opt=CalcFc B3LYP/6-31G** SCRF=(Solvent=water) scf=xqc
 -------------------------------------------------------

 ----------------------------------
 NULAJYZBOLVQPQ-UHFFFAOYSA-N_conf_4
 ----------------------------------
 Symbolic Z-matrix:
 Charge =  0 Multiplicity = 1

 SCF Done:  E(RB3LYP) =  -575.241475860     A.U. after   13 cycles
 SCF Done:  E(RB3LYP) =  -575.246968544     A.U. after   11 cycles
 SCF Done:  E(RB3LYP) =  -575.247455971     A.U. after   10 cycles
 SCF Done:  E(RB3LYP) =  -575.247469750     A.U. after    8 cycles
 SCF Done:  E(RB3LYP) =  -575.247470415     A.U. after    7 cycles
 SCF Done:  E(RB3LYP) =  -575.247470537     A.U. after    7 cycles
 Optimization completed.
    -- Stationary point found.
 Normal termination of Gaussian 16 at Thu Jul 11 21:03:28 2024.

 ----------------------------------------------------------------------
 # freq B3LYP/6-31G** SCRF=(Solvent=water) volume NMR pop=NPA density=c
 urrent Geom=AllCheck Guess=Read
 ----------------------------------------------------------------------

 Structure from the checkpoint file:  "NULAJYZBOLVQPQ-UHFFFAOYSA-N_conf_4_1.chk"
 ----------------------------------
 NULAJYZBOLVQPQ-UHFFFAOYSA-N_conf_4
 ----------------------------------
 Charge =  0 Multiplicity = 1

 SCF Done:  E(RB3LYP) =  -575.247470537     A.U. after    1 cycles

      1  N    Isotropic =   239.2941   Anisotropy =    34.5468

      2  C    Isotropic =   149.6172   Anisotropy =    24.2009

      3  C    Isotropic =   146.9214   Anisotropy =    23.5012

      4  N    Isotropic =   187.0027   Anisotropy =    40.3767

      5  C    Isotropic =    51.7287   Anisotropy =   150.2741

      6  C    Isotropic =    72.3115   Anisotropy =   175.2728

      7  C    Isotropic =    75.0059   Anisotropy =   163.7705

      8  C    Isotropic =    72.9080   Anisotropy =   161.4491

      9  C    Isotropic =    70.9691   Anisotropy =   165.3245

     10  C    Isotropic =    68.2533   Anisotropy =   146.8753

     11  C    Isotropic =    62.4882   Anisotropy =   196.7343

     12  C    Isotropic =    80.0554   Anisotropy =   128.3617

     13  C    Isotropic =    69.4120   Anisotropy =   163.5468

     14  C    Isotropic =    90.9864   Anisotropy =   132.9503

     15  H    Isotropic =    30.6766   Anisotropy =    16.1389

     16  H    Isotropic =    31.4253   Anisotropy =    13.4518

     17  H    Isotropic =    28.3625   Anisotropy =     9.4794

     18  H    Isotropic =    28.7660   Anisotropy =     7.2898

     19  H    Isotropic =    28.8294   Anisotropy =     7.8273

     20  H    Isotropic =    28.6579   Anisotropy =     7.4664

     21  H    Isotropic =    25.9578   Anisotropy =    12.5128

     22  H    Isotropic =    23.5713   Anisotropy =    10.8518

     23  H    Isotropic =    24.1249   Anisotropy =     5.8403

     24  H    Isotropic =    24.1238   Anisotropy =     4.8066

     25  H    Isotropic =    23.9433   Anisotropy =     6.7677

     26  H    Isotropic =    24.5481   Anisotropy =     5.7776

     27  H    Isotropic =    24.2962   Anisotropy =     5.1342

     28  H    Isotropic =    25.1261   Anisotropy =     8.9386

  Exact polarizability: 254.457 -15.538 245.786  12.337   8.132  81.700
 Approx polarizability: 287.702 -14.632 301.440  17.361  11.847  99.874

                      1                      2                      3
                      A                      A                      A
 Frequencies --     51.4019                63.6558               108.6640
 Red. masses --      3.8024                 3.2886                 3.3068
 Frc consts  --      0.0059                 0.0079                 0.0230
 IR Inten    --      1.3706                 3.6398                 4.3892

                      4                      5                      6
                      A                      A                      A
 Frequencies --    131.5107               176.3656               202.6515
 Red. masses --      3.4543                 3.7345                 3.4202
 Frc consts  --      0.0352                 0.0684                 0.0828
 IR Inten    --      2.6110                 1.8861                 5.0885

                      7                      8                      9
                      A                      A                      A
 Frequencies --    266.5335               280.2448               284.5774
 Red. masses --      1.7700                 2.5481                 1.8803
 Frc consts  --      0.0741                 0.1179                 0.0897
 IR Inten    --     28.6815                 8.6633                19.1909

                     10                     11                     12
                      A                      A                      A
 Frequencies --    303.5742               430.4674               441.6766
 Red. masses --      3.0359                 3.1801                 3.8605
 Frc consts  --      0.1648                 0.3472                 0.4437
 IR Inten    --      2.9166                 3.4435                11.6902

                     13                     14                     15
                      A                      A                      A
 Frequencies --    474.5954               483.0890               532.7769
 Red. masses --      3.7969                 3.5522                 5.3601
 Frc consts  --      0.5039                 0.4884                 0.8964
 IR Inten    --     21.3993                 0.5614                 8.9494

                     16                     17                     18
                      A                      A                      A
 Frequencies --    534.1874               581.2098               614.7506
 Red. masses --      3.9026                 2.8995                 1.9320
 Frc consts  --      0.6561                 0.5771                 0.4302
 IR Inten    --      8.5848                11.2618               200.6998

                     19                     20                     21
                      A                      A                      A
 Frequencies --    647.0761               660.6317               743.3314
 Red. masses --      3.3081                 2.9842                 1.3940
 Frc consts  --      0.8161                 0.7674                 0.4538
 IR Inten    --     33.0648                67.7669                 1.4532

                     22                     23                     24
                      A                      A                      A
 Frequencies --    766.6162               787.8815               798.4228
 Red. masses --      2.9903                 1.6842                 3.1597
 Frc consts  --      1.0354                 0.6160                 1.1867
 IR Inten    --     22.9114                58.2264                22.6974

                     25                     26                     27
                      A                      A                      A
 Frequencies --    799.9897               836.4871               859.0106
 Red. masses --      2.6502                 1.4915                 1.4870
 Frc consts  --      0.9993                 0.6149                 0.6465
 IR Inten    --     33.8758                97.8989                 6.5393

                     28                     29                     30
                      A                      A                      A
 Frequencies --    879.9362               888.1082               921.1738
 Red. masses --      1.5904                 2.8009                 2.4189
 Frc consts  --      0.7256                 1.3016                 1.2094
 IR Inten    --      3.6097                40.0845                 5.4350

                     31                     32                     33
                      A                      A                      A
 Frequencies --    949.7696               957.6695               970.7017
 Red. masses --      1.7480                 1.3409                 1.2675
 Frc consts  --      0.9290                 0.7245                 0.7037
 IR Inten    --     50.9112                 1.4699                 0.7811

                     34                     35                     36
                      A                      A                      A
 Frequencies --    993.8648              1017.9594              1046.7939
 Red. masses --      1.2738                 1.4437                 3.0621
 Frc consts  --      0.7413                 0.8815                 1.9769
 IR Inten    --      0.3208                 8.0350                29.0112

                     37                     38                     39
                      A                      A                      A
 Frequencies --   1066.2409              1092.8407              1119.0562
 Red. masses --      2.2506                 2.3929                 2.0050
 Frc consts  --      1.5075                 1.6838                 1.4793
 IR Inten    --      0.7409                25.9441                11.6343

                     40                     41                     42
                      A                      A                      A
 Frequencies --   1159.2253              1171.7634              1190.3862
 Red. masses --      2.3085                 1.3338                 1.1388
 Frc consts  --      1.8277                 1.0790                 0.9507
 IR Inten    --     16.5258                 3.2070                 9.5933

                     43                     44                     45
                      A                      A                      A
 Frequencies --   1195.0335              1208.9356              1241.1330
 Red. masses --      1.2560                 1.5148                 2.2130
 Frc consts  --      1.0569                 1.3044                 2.0085
 IR Inten    --     37.0972                 1.4272                 0.7486

                     46                     47                     48
                      A                      A                      A
 Frequencies --   1279.5443              1284.2608              1316.4572
 Red. masses --      1.5287                 1.3597                 1.8712
 Frc consts  --      1.4746                 1.3213                 1.9106
 IR Inten    --     39.7238                 2.9936                75.1071

                     49                     50                     51
                      A                      A                      A
 Frequencies --   1335.0495              1380.8888              1388.7633
 Red. masses --      1.3105                 1.7216                 2.2228
 Frc consts  --      1.3762                 1.9342                 2.5258
 IR Inten    --     10.7581                34.5953                14.8890

                     52                     53                     54
                      A                      A                      A
 Frequencies --   1404.1587              1430.8171              1445.7017
 Red. masses --      4.0450                 1.4742                 2.2455
 Frc consts  --      4.6990                 1.7782                 2.7652
 IR Inten    --     53.6825                15.9163               101.5038

                     55                     56                     57
                      A                      A                      A
 Frequencies --   1474.8947              1498.0902              1508.4214
 Red. masses --      1.9675                 1.9762                 1.1052
 Frc consts  --      2.5217                 2.6131                 1.4816
 IR Inten    --      7.0523                 8.6861                 4.0051

                     58                     59                     60
                      A                      A                      A
 Frequencies --   1514.2894              1523.3159              1565.5384
 Red. masses --      1.7334                 1.2035                 3.1335
 Frc consts  --      2.3419                 1.6454                 4.5249
 IR Inten    --    390.7547                 1.3499               160.5598

                     61                     62                     63
                      A                      A                      A
 Frequencies --   1627.5568              1643.9220              1654.9145
 Red. masses --      6.5965                 4.8608                 1.0900
 Frc consts  --     10.2952                 7.7396                 1.7589
 IR Inten    --    177.5492                23.6374                37.7881

                     64                     65                     66
                      A                      A                      A
 Frequencies --   1671.5028              2958.5620              3002.2626
 Red. masses --      5.7961                 1.0723                 1.0697
 Frc consts  --      9.5411                 5.5302                 5.6810
 IR Inten    --     10.9717               101.4426               123.1866

                     67                     68                     69
                      A                      A                      A
 Frequencies --   3062.6395              3083.1595              3175.8642
 Red. masses --      1.0892                 1.0947                 1.0864
 Frc consts  --      6.0191                 6.1312                 6.4562
 IR Inten    --     53.1907                60.7152                 8.5156

                     70                     71                     72
                      A                      A                      A
 Frequencies --   3177.6204              3186.7696              3194.9220
 Red. masses --      1.0860                 1.0879                 1.0946
 Frc consts  --      6.4609                 6.5093                 6.5830
 IR Inten    --      6.3522                 7.3988                48.8290

                     73                     74                     75
                      A                      A                      A
 Frequencies --   3197.6697              3208.4727              3218.8757
 Red. masses --      1.0930                 1.0970                 1.0916
 Frc consts  --      6.5846                 6.6536                 6.6637
 IR Inten    --     63.1694                40.9004                26.1150

                     76                     77                     78
                      A                      A                      A
 Frequencies --   3493.5146              3545.4802              3577.2357
 Red. masses --      1.0514                 1.0748                 1.0918
 Frc consts  --      7.5601                 7.9603                 8.2319
 IR Inten    --      0.4387               156.1126                 2.1392

 - Thermochemistry -
 -------------------
 Temperature   298.150 Kelvin.  Pressure   1.00000 Atm.
 Atom     1 has atomic number  7 and mass  14.00307

 Molecular mass:   186.11570 amu.
 Principal axes and moments of inertia in atomic units:
                           1         2         3
     Eigenvalues --  1514.792734061.662655449.15486
           X            0.99999   0.00317   0.00005
           Y           -0.00317   0.99999   0.00097
           Z           -0.00005  -0.00097   1.00000
 This molecule is an asymmetric top.
 Rotational symmetry number  1.
 Warning -- assumption of classical behavior for rotation
           may cause significant error
 Rotational temperatures (Kelvin)      0.05718     0.02132     0.01589
 Rotational constants (GHZ):           1.19141     0.44434     0.33120
 Zero-point vibrational energy     627818.8 (Joules/Mol)
                                  150.05230 (Kcal/Mol)
 Warning -- explicit consideration of  18 degrees of freedom as
           vibrations may cause significant error
 Vibrational temperatures:     73.96    91.59   156.34   189.21   253.75
          (Kelvin)            291.57   383.48   403.21   409.44   436.78
                              619.35   635.47   682.84   695.06   766.55
                              768.58   836.23   884.49   931.00   950.50
                             1069.49  1102.99  1133.59  1148.75  1151.01
                             1203.52  1235.92  1266.03  1277.79  1325.36
                             1366.51  1377.87  1396.62  1429.95  1464.62
                             1506.10  1534.08  1572.35  1610.07  1667.87
                             1685.91  1712.70  1719.39  1739.39  1785.71
                             1840.98  1847.76  1894.09  1920.84  1986.79
                             1998.12  2020.27  2058.63  2080.04  2122.04
                             2155.42  2170.28  2178.72  2191.71  2252.46
                             2341.69  2365.24  2381.05  2404.92  4256.71
                             4319.59  4406.46  4435.98  4569.36  4571.89
                             4585.05  4596.78  4600.73  4616.28  4631.24
                             5026.39  5101.16  5146.84

 Zero-point correction=                           0.239124 (Hartree/Particle)
 Thermal correction to Energy=                    0.251182
 Thermal correction to Enthalpy=                  0.252126
 Thermal correction to Gibbs Free Energy=         0.200607
 Sum of electronic and zero-point Energies=           -575.008347
 Sum of electronic and thermal Energies=              -574.996289
 Sum of electronic and thermal Enthalpies=            -574.995345
 Sum of electronic and thermal Free Energies=         -575.046863

                     E (Thermal)             CV                S
                      KCal/Mol        Cal/Mol-Kelvin    Cal/Mol-Kelvin
 Total                  157.619             48.200            108.430
 Electronic               0.000              0.000              0.000
 Translational            0.889              2.981             41.570
 Rotational               0.889              2.981             31.883
 Vibrational            155.841             42.239             34.977
 Vibration     1          0.596              1.977              4.763
 Vibration     2          0.597              1.972              4.341
 Vibration     3          0.606              1.942              3.293
 Vibration     4          0.612              1.922              2.924
 Vibration     5          0.628              1.871              2.367
 Vibration     6          0.639              1.836              2.109
 Vibration     7          0.672              1.735              1.619
 Vibration     8          0.680              1.710              1.532
 Vibration     9          0.683              1.702              1.506
 Vibration    10          0.695              1.667              1.397
 Vibration    11          0.792              1.404              0.857
 Vibration    12          0.801              1.379              0.821
 Vibration    13          0.831              1.306              0.725
 Vibration    14          0.839              1.288              0.702
 Vibration    15          0.888              1.178              0.581
 Vibration    16          0.889              1.174              0.578
 Vibration    17          0.938              1.072              0.483
 Vibration    18          0.974              1.001              0.425

 Optimization completed.
    -- Stationary point found.
 Normal termination of Gaussian 16 at Thu Jul 11 21:26:55 2024.
 Gaussian 16:  EM64L-G16RevA.03 25-Dec-2016

 ----------------------------------------------------------------------
 # TD(NStates=10, Root=1) B3LYP/6-31G** SCRF=(Solvent=water) volume pop
 =NPA density=current Geom=AllCheck Guess=Read
 ----------------------------------------------------------------------

 Structure from the checkpoint file:  "NULAJYZBOLVQPQ-UHFFFAOYSA-N_conf_4_2.chk"
 ----------------------------------
 NULAJYZBOLVQPQ-UHFFFAOYSA-N_conf_4
 ----------------------------------
 Charge =  0 Multiplicity = 1

                         Standard orientation:
 ---------------------------------------------------------------------
 Center     Atomic      Atomic             Coordinates (Angstroms)
 Number     Number       Type             X           Y           Z
 ---------------------------------------------------------------------
      1          7           0       -3.810455   -1.388136    0.675392
      2          6           0       -3.982685   -0.288172   -0.285033
      3          6           0       -2.823689    0.702593   -0.159630
      4          7           0       -1.567977   -0.015705   -0.308693
      5          6           0       -0.344506    0.613111   -0.139618
      6          6           0        0.857777   -0.189871   -0.092119
      7          6           0        0.836229   -1.603960   -0.227230
      8          6           0        1.995441   -2.349194   -0.157810
      9          6           0        3.240136   -1.710882    0.046819
     10          6           0        3.298150   -0.339271    0.160065
     11          6           0        2.124121    0.459850    0.087629
     12          6           0        2.187824    1.877898    0.180109
     13          6           0        1.031520    2.618003    0.096798
     14          6           0       -0.228692    1.997895   -0.054896
     15          1           0       -4.475083   -2.130009    0.471147
     16          1           0       -4.035524   -1.060933    1.613280
     17          1           0       -4.928519    0.262887   -0.173999
     18          1           0       -3.972605   -0.719734   -1.291742
     19          1           0       -2.883455    1.225966    0.810930
     20          1           0       -2.918055    1.467395   -0.939301
     21          1           0       -1.651062   -0.936981    0.109266
     22          1           0       -0.102078   -2.115214   -0.415892
     23          1           0        1.952353   -3.428577   -0.268227
     24          1           0        4.148883   -2.302939    0.103972
     25          1           0        4.253375    0.159280    0.303683
     26          1           0        3.153513    2.357455    0.310604
     27          1           0        1.073749    3.701892    0.162508
     28          1           0       -1.116230    2.618410   -0.093618
 ---------------------------------------------------------------------

 SCF Done:  E(RB3LYP) =  -575.247470537     A.U. after    1 cycles

 Excitation energies and oscillator strengths:

 Excited State   1:      Singlet-A      3.6785 eV  337.05 nm  f=0.2244  <S**2>=0.000
      50 -> 51         0.69840
 This state for optimization and/or second-order correction.
 Total Energy, E(TD-HF/TD-DFT) =  -575.112288259
 Copying the excited state density for this state as the 1-particle RhoCI density.

 Excited State   2:      Singlet-A      4.1479 eV  298.91 nm  f=0.1210  <S**2>=0.000
      49 -> 51         0.25211
      50 -> 52         0.65621

 Excited State   3:      Singlet-A      5.1149 eV  242.40 nm  f=0.5572  <S**2>=0.000
      47 -> 52        -0.13794
      48 -> 51         0.11844
      48 -> 52         0.22439
      49 -> 51         0.59546
      50 -> 52        -0.22988

 Excited State   4:      Singlet-A      5.2665 eV  235.42 nm  f=0.0278  <S**2>=0.000
      48 -> 51         0.65819
      49 -> 52        -0.15199
      50 -> 53        -0.14659

 Excited State   5:      Singlet-A      5.4110 eV  229.13 nm  f=0.0357  <S**2>=0.000
      47 -> 51         0.64987
      48 -> 51         0.12541
      50 -> 53         0.22398

 Excited State   6:      Singlet-A      5.6626 eV  218.95 nm  f=0.2087  <S**2>=0.000
      46 -> 51         0.10753
      47 -> 51        -0.23266
      47 -> 52         0.10433
      48 -> 52        -0.19932
      50 -> 53         0.60393

 Excited State   7:      Singlet-A      5.9177 eV  209.51 nm  f=0.7884  <S**2>=0.000
      47 -> 52        -0.13063
      48 -> 52         0.57540
      49 -> 51        -0.25311
      49 -> 52         0.11004
      49 -> 53         0.10652
      50 -> 53         0.18138

 Excited State   8:      Singlet-A      6.0742 eV  204.12 nm  f=0.1237  <S**2>=0.000
      47 -> 52         0.60584
      48 -> 52         0.24671
      49 -> 52        -0.23357

 Excited State   9:      Singlet-A      6.1045 eV  203.10 nm  f=0.4348  <S**2>=0.000
      47 -> 52         0.25739
      48 -> 51         0.10434
      49 -> 52         0.62125

 Excited State  10:      Singlet-A      6.6308 eV  186.98 nm  f=0.0022  <S**2>=0.000
      50 -> 54         0.69286

 The electronic state is 1-A.
 Alpha  occ. eigenvalues --  -14.33655 -14.31959 -10.22748 -10.21325 -10.21116
 Alpha  occ. eigenvalues --  -10.19621 -10.19579 -10.19062 -10.18914 -10.18822
 Alpha  occ. eigenvalues --  -10.18794 -10.18641 -10.17706 -10.17636  -0.93430
 Alpha  occ. eigenvalues --   -0.88092  -0.85851  -0.81107  -0.76605  -0.73675
 Alpha  occ. eigenvalues --   -0.72549  -0.69578  -0.62345  -0.61772  -0.59837
 Alpha  occ. eigenvalues --   -0.57772  -0.52982  -0.50897  -0.49725  -0.49104
 Alpha  occ. eigenvalues --   -0.46934  -0.45673  -0.44678  -0.43131  -0.42650
 Alpha  occ. eigenvalues --   -0.41535  -0.40035  -0.39232  -0.38865  -0.37040
 Alpha  occ. eigenvalues --   -0.36887  -0.35579  -0.33218  -0.33092  -0.32675
 Alpha  occ. eigenvalues --   -0.30038  -0.25123  -0.24464  -0.24195  -0.18670
 Alpha virt. eigenvalues --   -0.03077  -0.00704   0.04300   0.08239   0.09979
 Alpha virt. eigenvalues --    0.10457   0.10809   0.13137   0.13546   0.13773
 Alpha virt. eigenvalues --    0.15213   0.16173   0.17753   0.17802   0.18591

 Mulliken charges:
               1
     1  N   -0.634529
     2  C   -0.085809
     3  C   -0.047378
     4  N   -0.540558
     5  C    0.251904
     6  C    0.089781
     7  C   -0.229634
     8  C   -0.134503
     9  C   -0.113607
    10  C   -0.226880
    11  C    0.078785
    12  C   -0.126174
    13  C   -0.131450
    14  C   -0.101099
    15  H    0.271574
    16  H    0.267225
    17  H    0.114710
    18  H    0.130014
    19  H    0.139755
    20  H    0.146665
    21  H    0.298347
    22  H    0.061392
    23  H    0.066802
    24  H    0.068341
    25  H    0.057991
    26  H    0.106930
    27  H    0.102345
    28  H    0.119061
 Sum of Mulliken charges =  -0.00000

 Dipole moment (field-independent basis, Debye):
    X=             -9.4581    Y=              2.8529    Z=              0.8189  Tot=              9.9129
 Quadrupole moment (field-independent basis, Debye-Ang):
   XX=            -61.3105   YY=            -77.4362   ZZ=            -85.7564
   XY=              6.7829   XZ=             -1.8800   YZ=              0.0384

 Summary of Natural Population Analysis:

                                       Natural Population
                Natural  -----------------------------------------------
    Atom  No    Charge         Core      Valence    Rydberg      Total
 -----------------------------------------------------------------------
      N    1   -0.93837      1.99967     5.92407    0.01463     7.93837
      C    2   -0.27660      1.99937     4.26269    0.01454     6.27660
      C    3   -0.29839      1.99932     4.28437    0.01470     6.29839
      N    4   -0.50577      1.99938     5.49384    0.01255     7.50577
      C    5    0.18398      1.99898     3.79862    0.01842     5.81602
      C    6   -0.05150      1.99900     4.03843    0.01407     6.05150
      C    7   -0.36468      1.99909     4.34818    0.01741     6.36468
      C    8   -0.27496      1.99911     4.25947    0.01638     6.27496
      C    9   -0.25937      1.99911     4.24535    0.01491     6.25937
      C   10   -0.34810      1.99908     4.33218    0.01685     6.34810
      C   11   -0.07278      1.99904     4.05857    0.01517     6.07278
      C   12   -0.16752      1.99905     4.15419    0.01428     6.16752
      C   13   -0.27628      1.99914     4.26156    0.01558     6.27628
      C   14   -0.22377      1.99908     4.21237    0.01232     6.22377
      H   15    0.40769      0.00000     0.58997    0.00234     0.59231
      H   16    0.39756      0.00000     0.59969    0.00275     0.60244
      H   17    0.23131      0.00000     0.76645    0.00224     0.76869
      H   18    0.24053      0.00000     0.75717    0.00230     0.75947
      H   19    0.24454      0.00000     0.75246    0.00300     0.75546
      H   20    0.25945      0.00000     0.73879    0.00176     0.74055
      H   21    0.44089      0.00000     0.55340    0.00571     0.55911
      H   22    0.22085      0.00000     0.77732    0.00182     0.77915
      H   23    0.23028      0.00000     0.76831    0.00142     0.76972
      H   24    0.23126      0.00000     0.76736    0.00139     0.76874
      H   25    0.22451      0.00000     0.77382    0.00167     0.77549
      H   26    0.24523      0.00000     0.75305    0.00171     0.75477
      H   27    0.24913      0.00000     0.74950    0.00137     0.75087
      H   28    0.25088      0.00000     0.74773    0.00139     0.74912
 =======================================================================
   * Total *    0.00000     27.98841    71.76889    0.24269   100.00000

 Normal termination of Gaussian 16 at Thu Jul 11 21:52:29 2024.
