 Gaussian 16, Revision A.03,

 -------------------------------------------------------
 # opt=CalcFc B3LYP/6-31G** SCRF=(Solvent=water) scf=xqc
 -------------------------------------------------------

 ----------------------------------
 NULAJYZBOLVQPQ-UHFFFAOYSA-N_conf_1
 ----------------------------------
 Symbolic Z-matrix:
 Charge =  0 Multiplicity = 1

 SCF Done:  E(RB3LYP) =  -575.231847063     A.U. after   13 cycles
 SCF Done:  E(RB3LYP) =  -575.237800096     A.U. after   11 cycles
 SCF Done:  E(RB3LYP) =  -575.239372666     A.U. after   12 cycles
 SCF Done:  E(RB3LYP) =  -575.240986560     A.U. after   13 cycles
 SCF Done:  E(RB3LYP) =  -575.243257713     A.U. after   10 cycles
 SCF Done:  E(RB3LYP) =  -575.243391724     A.U. after   13 cycles
 SCF Done:  E(RB3LYP) =  -575.244166936     A.U. after   12 cycles
 SCF Done:  E(RB3LYP) =  -575.244343067     A.U. after    9 cycles
 SCF Done:  E(RB3LYP) =  -575.244353933     A.U. after    9 cycles
 SCF Done:  E(RB3LYP) =  -575.244359287     A.U. after    8 cycles
 SCF Done:  E(RB3LYP) =  -575.244360721     A.U. after    7 cycles
 SCF Done:  E(RB3LYP) =  -575.244360955     A.U. after    7 cycles
 SCF Done:  E(RB3LYP) =  -575.244361009     A.U. after    6 cycles
 Optimization completed.
    -- Stationary point found.
 Normal termination of Gaussian 16 at Thu Jul 11 21:18:57 2024.

 ----------------------------------------------------------------------
 # freq B3LYP/6-31G** SCRF=(Solvent=water) volume NMR pop=NPA density=c
 urrent Geom=AllCheck Guess=Read
 ----------------------------------------------------------------------

 Structure from the checkpoint file:  "NULAJYZBOLVQPQ-UHFFFAOYSA-N_conf_1_1.chk"
 ----------------------------------
 NULAJYZBOLVQPQ-UHFFFAOYSA-N_conf_1
 ----------------------------------
 Charge =  0 Multiplicity = 1

 SCF Done:  E(RB3LYP) =  -575.244361009     A.U. after    1 cycles

      1  N    Isotropic =   243.3041   Anisotropy =    50.7567

      2  C    Isotropic =   148.8251   Anisotropy =    25.0947

      3  C    Isotropic =   143.7307   Anisotropy =    17.4830

      4  N    Isotropic =   189.9497   Anisotropy =    39.5388

      5  C    Isotropic =    52.0785   Anisotropy =   148.9748

      6  C    Isotropic =    71.9884   Anisotropy =   176.1245

      7  C    Isotropic =    75.4341   Anisotropy =   163.7676

      8  C    Isotropic =    72.4867   Anisotropy =   162.3835

      9  C    Isotropic =    70.8363   Anisotropy =   165.7785

     10  C    Isotropic =    68.0319   Anisotropy =   147.4935

     11  C    Isotropic =    62.5776   Anisotropy =   196.8435

     12  C    Isotropic =    78.7600   Anisotropy =   130.6266

     13  C    Isotropic =    69.5547   Anisotropy =   163.6327

     14  C    Isotropic =    90.0250   Anisotropy =   135.9382

     15  H    Isotropic =    31.7092   Anisotropy =    13.2752

     16  H    Isotropic =    30.5680   Anisotropy =    13.2598

     17  H    Isotropic =    28.7753   Anisotropy =     7.1703

     18  H    Isotropic =    28.6478   Anisotropy =     9.1047

     19  H    Isotropic =    28.6653   Anisotropy =     6.4470

     20  H    Isotropic =    28.9033   Anisotropy =     7.9125

     21  H    Isotropic =    27.5173   Anisotropy =    10.2558

     22  H    Isotropic =    23.5991   Anisotropy =    10.8403

     23  H    Isotropic =    24.1112   Anisotropy =     5.8214

     24  H    Isotropic =    24.1073   Anisotropy =     4.8423

     25  H    Isotropic =    23.9172   Anisotropy =     6.7911

     26  H    Isotropic =    24.4713   Anisotropy =     5.8637

     27  H    Isotropic =    24.2777   Anisotropy =     5.1611

     28  H    Isotropic =    25.0502   Anisotropy =     9.0569

  Exact polarizability: 250.954  18.450 245.256  -9.802   6.589  81.479
 Approx polarizability: 286.057  17.456 301.896 -13.648   9.572  99.360

                      1                      2                      3
                      A                      A                      A
 Frequencies --     47.0820                63.7275               107.1091
 Red. masses --      4.0022                 3.0373                 3.3877
 Frc consts  --      0.0052                 0.0073                 0.0229
 IR Inten    --      0.3501                 0.4238                 2.0445

                      4                      5                      6
                      A                      A                      A
 Frequencies --    131.2108               165.1833               190.6469
 Red. masses --      3.3311                 2.8711                 3.4195
 Frc consts  --      0.0338                 0.0462                 0.0732
 IR Inten    --      2.5293                 3.0896                 0.1852

                      7                      8                      9
                      A                      A                      A
 Frequencies --    265.4531               278.7089               296.7167
 Red. masses --      3.4078                 2.4811                 3.9044
 Frc consts  --      0.1415                 0.1136                 0.2025
 IR Inten    --     11.6337                 1.9051                11.3289

                     10                     11                     12
                      A                      A                      A
 Frequencies --    333.0301               429.8677               443.7576
 Red. masses --      1.2184                 3.0035                 3.4271
 Frc consts  --      0.0796                 0.3270                 0.3976
 IR Inten    --     85.0801                13.0464                17.0434

                     13                     14                     15
                      A                      A                      A
 Frequencies --    461.0025               482.2617               521.3600
 Red. masses --      3.1695                 3.5327                 3.2687
 Frc consts  --      0.3969                 0.4841                 0.5235
 IR Inten    --     73.6177                 0.3446                 7.5355

                     16                     17                     18
                      A                      A                      A
 Frequencies --    528.1427               551.7019               589.8614
 Red. masses --      3.8260                 2.1694                 3.0966
 Frc consts  --      0.6288                 0.3891                 0.6348
 IR Inten    --     45.2671               103.7448                46.8466

                     19                     20                     21
                      A                      A                      A
 Frequencies --    638.8461               658.4303               745.2396
 Red. masses --      4.4931                 3.3505                 1.4055
 Frc consts  --      1.0804                 0.8558                 0.4599
 IR Inten    --     11.8521                22.9143                 2.5777

                     22                     23                     24
                      A                      A                      A
 Frequencies --    758.5002               788.9382               798.8117
 Red. masses --      3.1829                 1.7181                 4.8730
 Frc consts  --      1.0789                 0.6301                 1.8321
 IR Inten    --     15.5010                62.1476                 4.5448

                     25                     26                     27
                      A                      A                      A
 Frequencies --    801.6254               828.3628               862.8976
 Red. masses --      1.9707                 1.4479                 1.4925
 Frc consts  --      0.7461                 0.5854                 0.6548
 IR Inten    --     67.1722                82.7034                 9.1885

                     28                     29                     30
                      A                      A                      A
 Frequencies --    866.7277               883.6086               907.3454
 Red. masses --      2.3134                 1.5777                 2.8820
 Frc consts  --      1.0239                 0.7258                 1.3979
 IR Inten    --    158.2242                 4.1301                17.5715

                     31                     32                     33
                      A                      A                      A
 Frequencies --    922.8672               961.0461               972.6024
 Red. masses --      1.7288                 1.3378                 1.2711
 Frc consts  --      0.8675                 0.7280                 0.7084
 IR Inten    --    115.3308                 1.8912                 1.3643

                     34                     35                     36
                      A                      A                      A
 Frequencies --    995.5793              1013.3520              1048.0164
 Red. masses --      1.2738                 1.7683                 2.9586
 Frc consts  --      0.7439                 1.0699                 1.9145
 IR Inten    --      0.4542                12.7791                15.4868

                     37                     38                     39
                      A                      A                      A
 Frequencies --   1067.8718              1109.5715              1127.3485
 Red. masses --      2.3252                 2.4031                 2.1823
 Frc consts  --      1.5623                 1.7431                 1.6341
 IR Inten    --     12.5479                22.7757                 8.2631

                     40                     41                     42
                      A                      A                      A
 Frequencies --   1149.2646              1171.5717              1189.6851
 Red. masses --      2.5825                 1.3135                 1.1633
 Frc consts  --      2.0097                 1.0622                 0.9701
 IR Inten    --     31.9706                 1.7743                 6.2993

                     43                     44                     45
                      A                      A                      A
 Frequencies --   1199.0613              1208.3536              1240.4981
 Red. masses --      1.2728                 1.4597                 2.2002
 Frc consts  --      1.0782                 1.2557                 1.9948
 IR Inten    --     12.6150                 3.5539                 0.6051

                     46                     47                     48
                      A                      A                      A
 Frequencies --   1278.0522              1285.1801              1313.1489
 Red. masses --      1.4818                 1.3719                 2.2313
 Frc consts  --      1.4261                 1.3350                 2.2669
 IR Inten    --     70.0100                 8.0943               116.3523

                     49                     50                     51
                      A                      A                      A
 Frequencies --   1373.2156              1387.1101              1397.6097
 Red. masses --      1.4819                 2.0293                 1.5751
 Frc consts  --      1.6464                 2.3005                 1.8128
 IR Inten    --     12.7628                23.8172                12.8799

                     52                     53                     54
                      A                      A                      A
 Frequencies --   1401.2792              1410.2331              1444.3546
 Red. masses --      1.9198                 1.8242                 2.3146
 Frc consts  --      2.2210                 2.1374                 2.8450
 IR Inten    --     15.2870                36.2365               120.6331

                     55                     56                     57
                      A                      A                      A
 Frequencies --   1475.4517              1488.6423              1500.1761
 Red. masses --      2.0118                 1.0932                 2.1019
 Frc consts  --      2.5804                 1.4273                 2.7871
 IR Inten    --      5.0399                 2.0695                11.0734

                     58                     59                     60
                      A                      A                      A
 Frequencies --   1517.9786              1523.5000              1567.3352
 Red. masses --      1.1057                 1.7735                 2.8789
 Frc consts  --      1.5011                 2.4254                 4.1668
 IR Inten    --     64.1007               134.1992               139.8799

                     61                     62                     63
                      A                      A                      A
 Frequencies --   1627.7005              1646.3745              1655.8505
 Red. masses --      6.6921                 4.8147                 1.0928
 Frc consts  --     10.4463                 7.6891                 1.7654
 IR Inten    --    142.1760                22.8319                32.9417

                     64                     65                     66
                      A                      A                      A
 Frequencies --   1672.9501              2958.9027              3044.8354
 Red. masses --      5.7337                 1.0717                 1.0627
 Frc consts  --      9.4547                 5.5283                 5.8050
 IR Inten    --     10.8515               113.0218                46.6640

                     67                     68                     69
                      A                      A                      A
 Frequencies --   3064.4341              3092.4855              3177.0718
 Red. masses --      1.0879                 1.1051                 1.0865
 Frc consts  --      6.0192                 6.2269                 6.4616
 IR Inten    --     74.8664                54.6599                 7.0804

                     70                     71                     72
                      A                      A                      A
 Frequencies --   3179.4104              3187.7427              3196.2675
 Red. masses --      1.0861                 1.0879                 1.0949
 Frc consts  --      6.4684                 6.5133                 6.5903
 IR Inten    --      5.6699                 7.2612                47.3485

                     73                     74                     75
                      A                      A                      A
 Frequencies --   3198.7056              3209.3709              3222.8102
 Red. masses --      1.0930                 1.0970                 1.0914
 Frc consts  --      6.5888                 6.6571                 6.6791
 IR Inten    --     61.9638                38.7106                24.1669

                     76                     77                     78
                      A                      A                      A
 Frequencies --   3490.4921              3578.9483              3588.2174
 Red. masses --      1.0496                 1.0930                 1.0745
 Frc consts  --      7.5341                 8.2486                 8.1508
 IR Inten    --      0.7430                 0.6899                28.1819

 - Thermochemistry -
 -------------------
 Temperature   298.150 Kelvin.  Pressure   1.00000 Atm.
 Atom     1 has atomic number  7 and mass  14.00307

 Molecular mass:   186.11570 amu.
 Principal axes and moments of inertia in atomic units:
                           1         2         3
     Eigenvalues --  1493.381364217.239015595.13460
           X            1.00000   0.00084  -0.00048
           Y           -0.00084   1.00000   0.00031
           Z            0.00048  -0.00031   1.00000
 This molecule is an asymmetric top.
 Rotational symmetry number  1.
 Warning -- assumption of classical behavior for rotation
           may cause significant error
 Rotational temperatures (Kelvin)      0.05800     0.02054     0.01548
 Rotational constants (GHZ):           1.20849     0.42794     0.32256
 Zero-point vibrational energy     627792.3 (Joules/Mol)
                                  150.04597 (Kcal/Mol)
 Warning -- explicit consideration of  18 degrees of freedom as
           vibrations may cause significant error
 Vibrational temperatures:     67.74    91.69   154.11   188.78   237.66
          (Kelvin)            274.30   381.93   401.00   426.91   479.16
                              618.48   638.47   663.28   693.87   750.12
                              759.88   793.78   848.68   919.16   947.33
                             1072.23  1091.31  1135.11  1149.31  1153.36
                             1191.83  1241.52  1247.03  1271.32  1305.47
                             1327.80  1382.73  1399.36  1432.42  1457.99
                             1507.86  1536.43  1596.43  1622.00  1653.54
                             1685.63  1711.69  1725.18  1738.55  1784.80
                             1838.83  1849.09  1889.33  1975.75  1995.74
                             2010.85  2016.13  2029.01  2078.10  2122.85
                             2141.82  2158.42  2184.03  2191.98  2255.05
                             2341.90  2368.77  2382.40  2407.00  4257.20
                             4380.84  4409.04  4449.40  4571.10  4574.46
                             4586.45  4598.72  4602.22  4617.57  4636.91
                             5022.04  5149.31  5162.64

 Zero-point correction=                           0.239113 (Hartree/Particle)
 Thermal correction to Energy=                    0.251244
 Thermal correction to Enthalpy=                  0.252188
 Thermal correction to Gibbs Free Energy=         0.200430
 Sum of electronic and zero-point Energies=           -575.005248
 Sum of electronic and thermal Energies=              -574.993117
 Sum of electronic and thermal Enthalpies=            -574.992173
 Sum of electronic and thermal Free Energies=         -575.043931

                     E (Thermal)             CV                S
                      KCal/Mol        Cal/Mol-Kelvin    Cal/Mol-Kelvin
 Total                  157.658             48.424            108.932
 Electronic               0.000              0.000              0.000
 Translational            0.889              2.981             41.570
 Rotational               0.889              2.981             31.933
 Vibrational            155.880             42.463             35.430
 Vibration     1          0.595              1.979              4.936
 Vibration     2          0.597              1.972              4.338
 Vibration     3          0.606              1.944              3.321
 Vibration     4          0.612              1.922              2.928
 Vibration     5          0.624              1.885              2.490
 Vibration     6          0.634              1.853              2.222
 Vibration     7          0.671              1.736              1.626
 Vibration     8          0.679              1.713              1.542
 Vibration     9          0.690              1.680              1.435
 Vibration    10          0.715              1.610              1.245
 Vibration    11          0.791              1.405              0.859
 Vibration    12          0.803              1.375              0.815
 Vibration    13          0.819              1.337              0.763
 Vibration    14          0.838              1.289              0.704
 Vibration    15          0.876              1.203              0.607
 Vibration    16          0.883              1.188              0.591
 Vibration    17          0.907              1.136              0.541
 Vibration    18          0.947              1.053              0.467

 Optimization completed.
    -- Stationary point found.
 Normal termination of Gaussian 16 at Thu Jul 11 21:43:56 2024.
 Gaussian 16:  EM64L-G16RevA.03 25-Dec-2016

 ----------------------------------------------------------------------
 # TD(NStates=10, Root=1) B3LYP/6-31G** SCRF=(Solvent=water) volume pop
 =NPA density=current Geom=AllCheck Guess=Read
 ----------------------------------------------------------------------

 Structure from the checkpoint file:  "NULAJYZBOLVQPQ-UHFFFAOYSA-N_conf_1_2.chk"
 ----------------------------------
 NULAJYZBOLVQPQ-UHFFFAOYSA-N_conf_1
 ----------------------------------
 Charge =  0 Multiplicity = 1

                         Standard orientation:
 ---------------------------------------------------------------------
 Center     Atomic      Atomic             Coordinates (Angstroms)
 Number     Number       Type             X           Y           Z
 ---------------------------------------------------------------------
      1          7           0        4.181525   -1.357447    0.619975
      2          6           0        4.012701   -0.263164   -0.341121
      3          6           0        2.808642    0.666898   -0.133022
      4          7           0        1.551413   -0.058642   -0.250849
      5          6           0        0.328009    0.593295   -0.109775
      6          6           0       -0.881544   -0.197391   -0.074937
      7          6           0       -0.872789   -1.612569   -0.201220
      8          6           0       -2.040470   -2.345037   -0.141041
      9          6           0       -3.281074   -1.692883    0.043318
     10          6           0       -3.326775   -0.319814    0.143710
     11          6           0       -2.143694    0.466173    0.079969
     12          6           0       -2.193902    1.885821    0.155048
     13          6           0       -1.029986    2.613578    0.080551
     14          6           0        0.226873    1.978219   -0.041617
     15          1           0        4.091249   -1.009964    1.572832
     16          1           0        3.464217   -2.067718    0.497841
     17          1           0        3.958943   -0.701549   -1.343841
     18          1           0        4.913777    0.360777   -0.313788
     19          1           0        2.839938    1.449063   -0.900527
     20          1           0        2.900918    1.173586    0.843799
     21          1           0        1.582397   -0.950391    0.227189
     22          1           0        0.062040   -2.133972   -0.378587
     23          1           0       -2.007186   -3.425396   -0.244709
     24          1           0       -4.196277   -2.275416    0.093532
     25          1           0       -4.278600    0.189741    0.269633
     26          1           0       -3.156542    2.376442    0.265298
     27          1           0       -1.061693    3.698350    0.133662
     28          1           0        1.120314    2.590308   -0.065404
 ---------------------------------------------------------------------

 SCF Done:  E(RB3LYP) =  -575.244361009     A.U. after    1 cycles

 Excitation energies and oscillator strengths:

 Excited State   1:      Singlet-A      3.7352 eV  331.93 nm  f=0.2221  <S**2>=0.000
      50 -> 51         0.69825
 This state for optimization and/or second-order correction.
 Total Energy, E(TD-HF/TD-DFT) =  -575.107094536
 Copying the excited state density for this state as the 1-particle RhoCI density.

 Excited State   2:      Singlet-A      4.1950 eV  295.55 nm  f=0.1048  <S**2>=0.000
      48 -> 51         0.27416
      50 -> 52         0.64698

 Excited State   3:      Singlet-A      5.1208 eV  242.12 nm  f=0.5589  <S**2>=0.000
      47 -> 51        -0.12300
      47 -> 52        -0.21292
      48 -> 51         0.57971
      49 -> 51        -0.15763
      49 -> 52        -0.11265
      50 -> 52        -0.24091

 Excited State   4:      Singlet-A      5.1801 eV  239.35 nm  f=0.0582  <S**2>=0.000
      48 -> 51         0.11707
      49 -> 51         0.68029

 Excited State   5:      Singlet-A      5.3273 eV  232.73 nm  f=0.0417  <S**2>=0.000
      47 -> 51         0.63893
      48 -> 52         0.15441
      50 -> 53         0.21406

 Excited State   6:      Singlet-A      5.7004 eV  217.50 nm  f=0.1991  <S**2>=0.000
      46 -> 51         0.11687
      47 -> 51        -0.19007
      47 -> 52         0.19610
      49 -> 52         0.16367
      50 -> 53         0.61044

 Excited State   7:      Singlet-A      5.8687 eV  211.26 nm  f=0.2872  <S**2>=0.000
      48 -> 51         0.15479
      49 -> 52         0.64854
      50 -> 53        -0.17104

 Excited State   8:      Singlet-A      5.9660 eV  207.82 nm  f=0.5227  <S**2>=0.000
      47 -> 52         0.59737
      48 -> 51         0.19124
      48 -> 52        -0.12112
      48 -> 53        -0.12832
      49 -> 52        -0.18101
      50 -> 53        -0.12967

 Excited State   9:      Singlet-A      6.0926 eV  203.50 nm  f=0.4673  <S**2>=0.000
      47 -> 51        -0.12049
      47 -> 52         0.12949
      48 -> 52         0.65248

 Excited State  10:      Singlet-A      6.1916 eV  200.25 nm  f=0.0116  <S**2>=0.000
      50 -> 54         0.69133

 The electronic state is 1-A.
 Alpha  occ. eigenvalues --  -14.34368 -14.31806 -10.22976 -10.21358 -10.21106
 Alpha  occ. eigenvalues --  -10.19794 -10.19737 -10.19189 -10.19021 -10.18955
 Alpha  occ. eigenvalues --  -10.18915 -10.18786 -10.17971 -10.17866  -0.93690
 Alpha  occ. eigenvalues --   -0.88033  -0.86035  -0.81285  -0.76698  -0.73851
 Alpha  occ. eigenvalues --   -0.72547  -0.69916  -0.62698  -0.61948  -0.60178
 Alpha  occ. eigenvalues --   -0.57902  -0.53076  -0.51068  -0.50054  -0.49014
 Alpha  occ. eigenvalues --   -0.47350  -0.45757  -0.44832  -0.43051  -0.42635
 Alpha  occ. eigenvalues --   -0.41153  -0.40300  -0.39582  -0.38675  -0.37701
 Alpha  occ. eigenvalues --   -0.37142  -0.35830  -0.33366  -0.33227  -0.32841
 Alpha  occ. eigenvalues --   -0.30191  -0.25038  -0.24332  -0.24218  -0.19079
 Alpha virt. eigenvalues --   -0.03294  -0.00860   0.04106   0.06692   0.09787
 Alpha virt. eigenvalues --    0.10403   0.10633   0.12728   0.13650   0.14195
 Alpha virt. eigenvalues --    0.15028   0.16530   0.16816   0.17660   0.18711

 Mulliken charges:
               1
     1  N   -0.628446
     2  C   -0.088096
     3  C   -0.057313
     4  N   -0.538380
     5  C    0.249574
     6  C    0.090311
     7  C   -0.226311
     8  C   -0.133276
     9  C   -0.112055
    10  C   -0.222753
    11  C    0.079289
    12  C   -0.125100
    13  C   -0.131022
    14  C   -0.100254
    15  H    0.262308
    16  H    0.261496
    17  H    0.129201
    18  H    0.126916
    19  H    0.144526
    20  H    0.140453
    21  H    0.280299
    22  H    0.063683
    23  H    0.069372
    24  H    0.071101
    25  H    0.061298
    26  H    0.108380
    27  H    0.104386
    28  H    0.120414
 Sum of Mulliken charges =  -0.00000

 Dipole moment (field-independent basis, Debye):
    X=              5.6646    Y=              3.0992    Z=              0.9812  Tot=              6.5311
 Quadrupole moment (field-independent basis, Debye-Ang):
   XX=            -86.5575   YY=            -77.4872   ZZ=            -85.5194
   XY=              0.8344   XZ=              0.6877   YZ=             -0.2655

 Summary of Natural Population Analysis:

                                       Natural Population
                Natural  -----------------------------------------------
    Atom  No    Charge         Core      Valence    Rydberg      Total
 -----------------------------------------------------------------------
      N    1   -0.92028      1.99970     5.90546    0.01512     7.92028
      C    2   -0.28315      1.99936     4.26700    0.01679     6.28315
      C    3   -0.30619      1.99931     4.29289    0.01399     6.30619
      N    4   -0.50770      1.99938     5.49572    0.01259     7.50770
      C    5    0.18472      1.99897     3.79812    0.01820     5.81528
      C    6   -0.05273      1.99900     4.03962    0.01410     6.05273
      C    7   -0.36027      1.99909     4.34370    0.01748     6.36027
      C    8   -0.27319      1.99911     4.25766    0.01641     6.27319
      C    9   -0.25684      1.99911     4.24287    0.01487     6.25684
      C   10   -0.34116      1.99908     4.32534    0.01675     6.34116
      C   11   -0.07192      1.99904     4.05771    0.01518     6.07192
      C   12   -0.16694      1.99905     4.15350    0.01439     6.16694
      C   13   -0.27267      1.99914     4.25790    0.01563     6.27267
      C   14   -0.22516      1.99907     4.21372    0.01236     6.22516
      H   15    0.39274      0.00000     0.60446    0.00280     0.60726
      H   16    0.38940      0.00000     0.60800    0.00260     0.61060
      H   17    0.24138      0.00000     0.75632    0.00231     0.75862
      H   18    0.24593      0.00000     0.75222    0.00185     0.75407
      H   19    0.25658      0.00000     0.74119    0.00223     0.74342
      H   20    0.24516      0.00000     0.75184    0.00300     0.75484
      H   21    0.42184      0.00000     0.57126    0.00690     0.57816
      H   22    0.22212      0.00000     0.77612    0.00176     0.77788
      H   23    0.23157      0.00000     0.76702    0.00142     0.76843
      H   24    0.23263      0.00000     0.76599    0.00138     0.76737
      H   25    0.22606      0.00000     0.77227    0.00167     0.77394
      H   26    0.24596      0.00000     0.75232    0.00172     0.75404
      H   27    0.25011      0.00000     0.74852    0.00136     0.74989
      H   28    0.25202      0.00000     0.74658    0.00140     0.74798
 =======================================================================
   * Total *   -0.00000     27.98841    71.76532    0.24627   100.00000

 Normal termination of Gaussian 16 at Thu Jul 11 22:04:29 2024.
