 Gaussian 16, Revision A.03,

 -------------------------------------------------------
 # opt=CalcFc B3LYP/6-31G** SCRF=(Solvent=water) scf=xqc
 -------------------------------------------------------

 ----------------------------------
 NULAJYZBOLVQPQ-UHFFFAOYSA-N_conf_3
 ----------------------------------
 Symbolic Z-matrix:
 Charge =  0 Multiplicity = 1

 SCF Done:  E(RB3LYP) =  -575.232771744     A.U. after   13 cycles
 SCF Done:  E(RB3LYP) =  -575.238218915     A.U. after   11 cycles
 SCF Done:  E(RB3LYP) =  -575.240104241     A.U. after   13 cycles
 SCF Done:  E(RB3LYP) =  -575.236270569     A.U. after   14 cycles
 SCF Done:  E(RB3LYP) =  -575.243366072     A.U. after   11 cycles
 SCF Done:  E(RB3LYP) =  -575.242316483     A.U. after   13 cycles
 SCF Done:  E(RB3LYP) =  -575.241844176     A.U. after   11 cycles
 SCF Done:  E(RB3LYP) =  -575.240912887     A.U. after   11 cycles
 SCF Done:  E(RB3LYP) =  -575.243568907     A.U. after    9 cycles
 SCF Done:  E(RB3LYP) =  -575.244430549     A.U. after   11 cycles
 SCF Done:  E(RB3LYP) =  -575.244552494     A.U. after    9 cycles
 SCF Done:  E(RB3LYP) =  -575.244579155     A.U. after    9 cycles
 SCF Done:  E(RB3LYP) =  -575.244587196     A.U. after    9 cycles
 SCF Done:  E(RB3LYP) =  -575.244589726     A.U. after    8 cycles
 SCF Done:  E(RB3LYP) =  -575.244591541     A.U. after    8 cycles
 SCF Done:  E(RB3LYP) =  -575.244591708     A.U. after    7 cycles
 SCF Done:  E(RB3LYP) =  -575.244591717     A.U. after    6 cycles
 Optimization completed.
    -- Stationary point found.
 Normal termination of Gaussian 16 at Thu Jul 11 21:22:17 2024.

 ----------------------------------------------------------------------
 # freq B3LYP/6-31G** SCRF=(Solvent=water) volume NMR pop=NPA density=c
 urrent Geom=AllCheck Guess=Read
 ----------------------------------------------------------------------

 Structure from the checkpoint file:  "NULAJYZBOLVQPQ-UHFFFAOYSA-N_conf_3_1.chk"
 ----------------------------------
 NULAJYZBOLVQPQ-UHFFFAOYSA-N_conf_3
 ----------------------------------
 Charge =  0 Multiplicity = 1

 SCF Done:  E(RB3LYP) =  -575.244591717     A.U. after    1 cycles

      1  N    Isotropic =   238.5067   Anisotropy =    21.3589

      2  C    Isotropic =   147.6187   Anisotropy =    40.9812

      3  C    Isotropic =   141.3967   Anisotropy =    39.9093

      4  N    Isotropic =   188.7213   Anisotropy =    47.0789

      5  C    Isotropic =    52.4074   Anisotropy =   148.1018

      6  C    Isotropic =    72.3722   Anisotropy =   176.0481

      7  C    Isotropic =    75.4566   Anisotropy =   163.7002

      8  C    Isotropic =    72.5688   Anisotropy =   162.2997

      9  C    Isotropic =    70.8636   Anisotropy =   165.7739

     10  C    Isotropic =    68.0746   Anisotropy =   147.4297

     11  C    Isotropic =    62.5848   Anisotropy =   196.8165

     12  C    Isotropic =    79.0467   Anisotropy =   130.2183

     13  C    Isotropic =    69.5446   Anisotropy =   163.6965

     14  C    Isotropic =    90.3169   Anisotropy =   136.3240

     15  H    Isotropic =    31.0996   Anisotropy =    12.9850

     16  H    Isotropic =    31.1801   Anisotropy =    13.3670

     17  H    Isotropic =    28.8869   Anisotropy =     5.9431

     18  H    Isotropic =    28.6965   Anisotropy =     5.7155

     19  H    Isotropic =    28.6911   Anisotropy =     5.2013

     20  H    Isotropic =    28.8622   Anisotropy =     5.9527

     21  H    Isotropic =    27.9414   Anisotropy =    10.1632

     22  H    Isotropic =    23.7088   Anisotropy =    10.7911

     23  H    Isotropic =    24.1321   Anisotropy =     5.7513

     24  H    Isotropic =    24.1170   Anisotropy =     4.8410

     25  H    Isotropic =    23.9245   Anisotropy =     6.8184

     26  H    Isotropic =    24.4897   Anisotropy =     5.8770

     27  H    Isotropic =    24.2763   Anisotropy =     5.2376

     28  H    Isotropic =    25.0675   Anisotropy =     8.9655

  Exact polarizability: 259.054  19.121 238.434  -3.510   0.201  79.488
 Approx polarizability: 292.736  19.229 295.354  -6.052   0.572  97.521

                      1                      2                      3
                      A                      A                      A
 Frequencies --     44.8013                79.5018                87.2718
 Red. masses --      4.4845                 1.6837                 4.1791
 Frc consts  --      0.0053                 0.0063                 0.0188
 IR Inten    --      0.2080                 3.6703                 2.6054

                      4                      5                      6
                      A                      A                      A
 Frequencies --    129.8109               161.2388               193.6933
 Red. masses --      3.4457                 3.0183                 3.2846
 Frc consts  --      0.0342                 0.0462                 0.0726
 IR Inten    --      2.9382                 1.8530                 0.4021

                      7                      8                      9
                      A                      A                      A
 Frequencies --    235.0651               270.3374               290.2456
 Red. masses --      4.2460                 3.4218                 4.2390
 Frc consts  --      0.1382                 0.1473                 0.2104
 IR Inten    --     11.1313                 8.4415                 2.5994

                     10                     11                     12
                      A                      A                      A
 Frequencies --    306.7282               394.9908               428.1702
 Red. masses --      1.1241                 3.2893                 2.7497
 Frc consts  --      0.0623                 0.3024                 0.2970
 IR Inten    --     73.3178                35.2109                38.7619

                     13                     14                     15
                      A                      A                      A
 Frequencies --    457.4325               482.7177               511.1207
 Red. masses --      2.7989                 3.5316                 3.6884
 Frc consts  --      0.3451                 0.4849                 0.5677
 IR Inten    --    111.7785                 0.9666                54.5470

                     16                     17                     18
                      A                      A                      A
 Frequencies --    518.1007               566.5928               586.5053
 Red. masses --      4.3785                 3.0190                 3.2768
 Frc consts  --      0.6925                 0.5710                 0.6641
 IR Inten    --     22.5926                50.8422                29.2305

                     19                     20                     21
                      A                      A                      A
 Frequencies --    633.8627               657.1741               744.4532
 Red. masses --      5.0558                 3.3950                 1.3778
 Frc consts  --      1.1968                 0.8639                 0.4499
 IR Inten    --      8.8550                17.0525                 1.9251

                     22                     23                     24
                      A                      A                      A
 Frequencies --    757.2671               788.0830               794.9734
 Red. masses --      4.1743                 1.5483                 1.5116
 Frc consts  --      1.4104                 0.5666                 0.5628
 IR Inten    --      8.0114                69.5683                10.1633

                     25                     26                     27
                      A                      A                      A
 Frequencies --    798.9628               805.5450               864.1720
 Red. masses --      5.2141                 1.4616                 1.4873
 Frc consts  --      1.9610                 0.5588                 0.6544
 IR Inten    --      4.6275                41.4155                 4.7210

                     28                     29                     30
                      A                      A                      A
 Frequencies --    882.5933               886.9877               903.4196
 Red. masses --      1.6368                 3.7976                 1.6018
 Frc consts  --      0.7512                 1.7603                 0.7702
 IR Inten    --      1.8038                 3.5593               264.8458

                     31                     32                     33
                      A                      A                      A
 Frequencies --    960.3105               972.1624               995.2386
 Red. masses --      1.3388                 1.2699                 1.2750
 Frc consts  --      0.7274                 0.7071                 0.7441
 IR Inten    --      1.5575                 1.0202                 0.4574

                     34                     35                     36
                      A                      A                      A
 Frequencies --   1010.9431              1033.2842              1061.1969
 Red. masses --      1.2290                 4.0283                 2.7085
 Frc consts  --      0.7400                 2.5340                 1.7971
 IR Inten    --      2.8430                 3.9025                36.1178

                     37                     38                     39
                      A                      A                      A
 Frequencies --   1063.4326              1103.1809              1125.3278
 Red. masses --      2.7377                 2.4764                 2.1995
 Frc consts  --      1.8241                 1.7757                 1.6411
 IR Inten    --     33.2975                21.4407                 2.1163

                     40                     41                     42
                      A                      A                      A
 Frequencies --   1146.5692              1171.7792              1191.3412
 Red. masses --      2.6685                 1.3122                 1.1489
 Frc consts  --      2.0669                 1.0616                 0.9607
 IR Inten    --     58.4189                 1.5308                 0.6362

                     43                     44                     45
                      A                      A                      A
 Frequencies --   1195.9741              1209.7051              1241.8438
 Red. masses --      1.2579                 1.5210                 2.2790
 Frc consts  --      1.0601                 1.3114                 2.0708
 IR Inten    --     55.1537                 6.6094                11.5875

                     46                     47                     48
                      A                      A                      A
 Frequencies --   1281.9788              1306.0206              1318.2690
 Red. masses --      1.6336                 1.8676                 1.2100
 Frc consts  --      1.5819                 1.8768                 1.2390
 IR Inten    --     16.4070                86.5198                28.2857

                     49                     50                     51
                      A                      A                      A
 Frequencies --   1345.5147              1383.9010              1393.5104
 Red. masses --      1.4347                 2.0468                 1.3929
 Frc consts  --      1.5303                 2.3096                 1.5937
 IR Inten    --      0.8709                52.0814                 0.3015

                     52                     53                     54
                      A                      A                      A
 Frequencies --   1400.8784              1420.2987              1444.1021
 Red. masses --      4.1362                 1.5408                 2.2555
 Frc consts  --      4.7825                 1.8313                 2.7713
 IR Inten    --     24.3765                10.1679               131.1726

                     55                     56                     57
                      A                      A                      A
 Frequencies --   1475.5778              1498.1082              1501.1252
 Red. masses --      2.0208                 1.2948                 1.6259
 Frc consts  --      2.5923                 1.7121                 2.1587
 IR Inten    --      5.6503                11.0696                 1.4735

                     58                     59                     60
                      A                      A                      A
 Frequencies --   1523.1274              1527.5883              1568.5527
 Red. masses --      1.5250                 1.2426                 2.8281
 Frc consts  --      2.0844                 1.7084                 4.0996
 IR Inten    --    179.8818                 0.7219               139.3782

                     61                     62                     63
                      A                      A                      A
 Frequencies --   1627.4203              1646.0487              1661.4312
 Red. masses --      6.6793                 4.8135                 1.0909
 Frc consts  --     10.4228                 7.6841                 1.7742
 IR Inten    --    152.8939                21.9111                32.8553

                     64                     65                     66
                      A                      A                      A
 Frequencies --   1672.7657              2962.5108              3031.9775
 Red. masses --      5.7102                 1.0707                 1.0635
 Frc consts  --      9.4140                 5.5364                 5.7602
 IR Inten    --     11.8999               112.3681                47.5834

                     67                     68                     69
                      A                      A                      A
 Frequencies --   3052.2745              3083.8336              3176.9465
 Red. masses --      1.0881                 1.1042                 1.0865
 Frc consts  --      5.9727                 6.1871                 6.4608
 IR Inten    --     46.2474                76.2823                 6.8369

                     70                     71                     72
                      A                      A                      A
 Frequencies --   3179.3424              3187.2201              3196.3162
 Red. masses --      1.0861                 1.0877                 1.0948
 Frc consts  --      6.4682                 6.5102                 6.5897
 IR Inten    --      6.1632                 5.8895                41.1665

                     73                     74                     75
                      A                      A                      A
 Frequencies --   3197.8817              3208.6163              3221.9350
 Red. masses --      1.0931                 1.0972                 1.0914
 Frc consts  --      6.5862                 6.6555                 6.6753
 IR Inten    --     69.1729                39.7474                23.7794

                     76                     77                     78
                      A                      A                      A
 Frequencies --   3480.0495              3559.4694              3593.3593
 Red. masses --      1.0500                 1.0922                 1.0750
 Frc consts  --      7.4920                 8.1532                 8.1781
 IR Inten    --      0.3329                 0.0755                18.7678

 - Thermochemistry -
 -------------------
 Temperature   298.150 Kelvin.  Pressure   1.00000 Atm.
 Atom     1 has atomic number  7 and mass  14.00307

 Molecular mass:   186.11570 amu.
 Principal axes and moments of inertia in atomic units:
                           1         2         3
     Eigenvalues --  1299.037164849.837636111.65164
           X            1.00000   0.00119   0.00052
           Y           -0.00119   1.00000  -0.00013
           Z           -0.00052   0.00013   1.00000
 This molecule is an asymmetric top.
 Rotational symmetry number  1.
 Warning -- assumption of classical behavior for rotation
           may cause significant error
 Rotational temperatures (Kelvin)      0.06668     0.01786     0.01417
 Rotational constants (GHZ):           1.38929     0.37212     0.29530
 Zero-point vibrational energy     627274.2 (Joules/Mol)
                                  149.92214 (Kcal/Mol)
 Warning -- explicit consideration of  18 degrees of freedom as
           vibrations may cause significant error
 Vibrational temperatures:     64.46   114.39   125.56   186.77   231.99
          (Kelvin)            278.68   338.21   388.96   417.60   441.31
                              568.30   616.04   658.14   694.52   735.39
                              745.43   815.20   843.85   911.99   945.53
                             1071.10  1089.54  1133.88  1143.79  1149.53
                             1159.00  1243.35  1269.85  1276.18  1299.82
                             1381.67  1398.72  1431.93  1454.52  1486.67
                             1526.83  1530.04  1587.23  1619.10  1649.66
                             1685.93  1714.07  1720.74  1740.50  1786.74
                             1844.48  1879.07  1896.70  1935.90  1991.12
                             2004.95  2015.55  2043.49  2077.74  2123.03
                             2155.44  2159.78  2191.44  2197.86  2256.80
                             2341.49  2368.30  2390.43  2406.74  4262.39
                             4362.34  4391.54  4436.95  4570.92  4574.36
                             4585.70  4598.79  4601.04  4616.48  4635.65
                             5007.02  5121.28  5170.04

 Zero-point correction=                           0.238916 (Hartree/Particle)
 Thermal correction to Energy=                    0.251202
 Thermal correction to Enthalpy=                  0.252146
 Thermal correction to Gibbs Free Energy=         0.200005
 Sum of electronic and zero-point Energies=           -575.005676
 Sum of electronic and thermal Energies=              -574.993390
 Sum of electronic and thermal Enthalpies=            -574.992446
 Sum of electronic and thermal Free Energies=         -575.044587

                     E (Thermal)             CV                S
                      KCal/Mol        Cal/Mol-Kelvin    Cal/Mol-Kelvin
 Total                  157.632             48.606            109.741
 Electronic               0.000              0.000              0.000
 Translational            0.889              2.981             41.570
 Rotational               0.889              2.981             32.021
 Vibrational            155.854             42.645             36.150
 Vibration     1          0.595              1.979              5.035
 Vibration     2          0.600              1.963              3.903
 Vibration     3          0.601              1.958              3.720
 Vibration     4          0.612              1.923              2.949
 Vibration     5          0.622              1.890              2.535
 Vibration     6          0.635              1.849              2.192
 Vibration     7          0.655              1.787              1.840
 Vibration     8          0.674              1.728              1.594
 Vibration     9          0.686              1.692              1.473
 Vibration    10          0.697              1.661              1.380
 Vibration    11          0.762              1.481              0.981
 Vibration    12          0.790              1.409              0.865
 Vibration    13          0.816              1.344              0.774
 Vibration    14          0.839              1.288              0.703
 Vibration    15          0.866              1.225              0.631
 Vibration    16          0.873              1.210              0.614
 Vibration    17          0.923              1.104              0.511
 Vibration    18          0.944              1.061              0.473

 Optimization completed.
    -- Stationary point found.
 Normal termination of Gaussian 16 at Thu Jul 11 21:43:18 2024.
 Gaussian 16:  EM64L-G16RevA.03 25-Dec-2016

 ----------------------------------------------------------------------
 # TD(NStates=10, Root=1) B3LYP/6-31G** SCRF=(Solvent=water) volume pop
 =NPA density=current Geom=AllCheck Guess=Read
 ----------------------------------------------------------------------

 Structure from the checkpoint file:  "NULAJYZBOLVQPQ-UHFFFAOYSA-N_conf_3_2.chk"
 ----------------------------------
 NULAJYZBOLVQPQ-UHFFFAOYSA-N_conf_3
 ----------------------------------
 Charge =  0 Multiplicity = 1

                         Standard orientation:
 ---------------------------------------------------------------------
 Center     Atomic      Atomic             Coordinates (Angstroms)
 Number     Number       Type             X           Y           Z
 ---------------------------------------------------------------------
      1          7           0        5.204978   -0.429395    0.069912
      2          6           0        3.824463   -0.906938   -0.031480
      3          6           0        2.752256    0.189835    0.037555
      4          7           0        1.420876   -0.388320   -0.085139
      5          6           0        0.279285    0.406598   -0.043118
      6          6           0       -1.017235   -0.232535   -0.025559
      7          6           0       -1.174425   -1.643839   -0.072887
      8          6           0       -2.423572   -2.228230   -0.031554
      9          6           0       -3.583018   -1.423937    0.053522
     10          6           0       -3.466570   -0.051590    0.075860
     11          6           0       -2.195465    0.583881    0.028577
     12          6           0       -2.077126    2.001425    0.022114
     13          6           0       -0.831582    2.580846   -0.034064
     14          6           0        0.343334    1.795573   -0.057503
     15          1           0        5.319151    0.092709    0.937195
     16          1           0        5.386140    0.239316   -0.676920
     17          1           0        3.653982   -1.630322    0.776829
     18          1           0        3.711779   -1.455729   -0.973525
     19          1           0        2.910714    0.894693   -0.787976
     20          1           0        2.872645    0.761825    0.973983
     21          1           0        1.326854   -1.262235    0.416463
     22          1           0       -0.303121   -2.282777   -0.172793
     23          1           0       -2.516591   -3.309250   -0.073519
     24          1           0       -4.563295   -1.890021    0.089508
     25          1           0       -4.354451    0.573472    0.125600
     26          1           0       -2.977242    2.608122    0.056464
     27          1           0       -0.734464    3.663003   -0.043020
     28          1           0        1.304845    2.294665   -0.070484
 ---------------------------------------------------------------------

 SCF Done:  E(RB3LYP) =  -575.244591717     A.U. after    1 cycles

 Excitation energies and oscillator strengths:

 Excited State   1:      Singlet-A      3.7304 eV  332.36 nm  f=0.2191  <S**2>=0.000
      50 -> 51         0.69823
 This state for optimization and/or second-order correction.
 Total Energy, E(TD-HF/TD-DFT) =  -575.107500521
 Copying the excited state density for this state as the 1-particle RhoCI density.

 Excited State   2:      Singlet-A      4.1903 eV  295.88 nm  f=0.1081  <S**2>=0.000
      48 -> 51         0.23493
      49 -> 51         0.14022
      50 -> 52         0.64810

 Excited State   3:      Singlet-A      5.1254 eV  241.90 nm  f=0.5977  <S**2>=0.000
      47 -> 51        -0.13897
      47 -> 52        -0.22967
      48 -> 51         0.42332
      49 -> 51         0.41568
      50 -> 52        -0.24625

 Excited State   4:      Singlet-A      5.2424 eV  236.50 nm  f=0.0350  <S**2>=0.000
      47 -> 51        -0.14109
      48 -> 51        -0.45639
      49 -> 51         0.49618

 Excited State   5:      Singlet-A      5.3312 eV  232.56 nm  f=0.0292  <S**2>=0.000
      47 -> 51         0.61980
      48 -> 52         0.11627
      49 -> 51         0.20831
      50 -> 53         0.19875

 Excited State   6:      Singlet-A      5.7038 eV  217.37 nm  f=0.2021  <S**2>=0.000
      46 -> 51         0.11649
      47 -> 51        -0.19149
      47 -> 52         0.21193
      50 -> 53         0.61921

 Excited State   7:      Singlet-A      5.9057 eV  209.94 nm  f=0.4415  <S**2>=0.000
      47 -> 52        -0.24896
      48 -> 51        -0.17419
      48 -> 52        -0.23551
      49 -> 52         0.54225
      50 -> 53         0.16264

 Excited State   8:      Singlet-A      5.9806 eV  207.31 nm  f=0.3600  <S**2>=0.000
      47 -> 52         0.54317
      48 -> 51         0.14589
      48 -> 52        -0.24351
      49 -> 52         0.28025
      50 -> 53        -0.11021

 Excited State   9:      Singlet-A      6.0962 eV  203.38 nm  f=0.4777  <S**2>=0.000
      47 -> 51        -0.13231
      48 -> 52         0.58941
      49 -> 52         0.31219

 Excited State  10:      Singlet-A      6.6058 eV  187.69 nm  f=0.0108  <S**2>=0.000
      46 -> 51         0.16325
      50 -> 54         0.56275
      50 -> 55         0.35533

 The electronic state is 1-A.
 Alpha  occ. eigenvalues --  -14.34453 -14.31600 -10.23000 -10.21366 -10.21063
 Alpha  occ. eigenvalues --  -10.19795 -10.19733 -10.19198 -10.19015 -10.18949
 Alpha  occ. eigenvalues --  -10.18907 -10.18778 -10.17949 -10.17837  -0.93619
 Alpha  occ. eigenvalues --   -0.88106  -0.86125  -0.81302  -0.76752  -0.73829
 Alpha  occ. eigenvalues --   -0.72447  -0.69421  -0.62801  -0.62011  -0.60204
 Alpha  occ. eigenvalues --   -0.58078  -0.52929  -0.50836  -0.50110  -0.49377
 Alpha  occ. eigenvalues --   -0.47139  -0.46159  -0.44085  -0.42833  -0.42410
 Alpha  occ. eigenvalues --   -0.41344  -0.40548  -0.39661  -0.39264  -0.37611
 Alpha  occ. eigenvalues --   -0.36769  -0.35364  -0.33435  -0.33184  -0.32829
 Alpha  occ. eigenvalues --   -0.30210  -0.24990  -0.24345  -0.24272  -0.19042
 Alpha virt. eigenvalues --   -0.03271  -0.00846   0.04138   0.08073   0.08994
 Alpha virt. eigenvalues --    0.10268   0.10502   0.12065   0.13304   0.14148
 Alpha virt. eigenvalues --    0.14519   0.15851   0.17713   0.18744   0.18947

 Mulliken charges:
               1
     1  N   -0.630268
     2  C   -0.090797
     3  C   -0.050864
     4  N   -0.550568
     5  C    0.254367
     6  C    0.090756
     7  C   -0.226906
     8  C   -0.133153
     9  C   -0.112285
    10  C   -0.223245
    11  C    0.079274
    12  C   -0.124477
    13  C   -0.130758
    14  C   -0.100988
    15  H    0.258991
    16  H    0.259453
    17  H    0.123001
    18  H    0.127500
    19  H    0.144588
    20  H    0.139004
    21  H    0.298047
    22  H    0.063286
    23  H    0.069436
    24  H    0.070967
    25  H    0.061100
    26  H    0.108873
    27  H    0.104723
    28  H    0.120944
 Sum of Mulliken charges =  -0.00000

 Dipole moment (field-independent basis, Debye):
    X=              6.3357    Y=              3.2460    Z=              0.8313  Tot=              7.1672
 Quadrupole moment (field-independent basis, Debye-Ang):
   XX=            -86.6765   YY=            -77.5644   ZZ=            -85.6745
   XY=              3.4781   XZ=              1.2968   YZ=             -0.9215

 Summary of Natural Population Analysis:

                                       Natural Population
                Natural  -----------------------------------------------
    Atom  No    Charge         Core      Valence    Rydberg      Total
 -----------------------------------------------------------------------
      N    1   -0.91643      1.99970     5.90154    0.01518     7.91643
      C    2   -0.27714      1.99937     4.26169    0.01608     6.27714
      C    3   -0.30510      1.99932     4.29121    0.01458     6.30510
      N    4   -0.50452      1.99939     5.49279    0.01235     7.50452
      C    5    0.18574      1.99897     3.79703    0.01826     5.81426
      C    6   -0.05273      1.99900     4.03964    0.01409     6.05273
      C    7   -0.36089      1.99909     4.34431    0.01749     6.36089
      C    8   -0.27281      1.99911     4.25729    0.01641     6.27281
      C    9   -0.25720      1.99911     4.24320    0.01489     6.25720
      C   10   -0.34205      1.99908     4.32620    0.01678     6.34205
      C   11   -0.07189      1.99904     4.05767    0.01518     6.07189
      C   12   -0.16576      1.99905     4.15234    0.01437     6.16576
      C   13   -0.27235      1.99914     4.25760    0.01561     6.27235
      C   14   -0.22510      1.99908     4.21366    0.01236     6.22510
      H   15    0.39005      0.00000     0.60707    0.00288     0.60995
      H   16    0.39045      0.00000     0.60674    0.00281     0.60955
      H   17    0.23254      0.00000     0.76536    0.00210     0.76746
      H   18    0.23824      0.00000     0.75943    0.00233     0.76176
      H   19    0.25000      0.00000     0.74762    0.00239     0.75000
      H   20    0.24413      0.00000     0.75281    0.00306     0.75587
      H   21    0.43222      0.00000     0.56264    0.00514     0.56778
      H   22    0.22172      0.00000     0.77656    0.00172     0.77828
      H   23    0.23160      0.00000     0.76699    0.00141     0.76840
      H   24    0.23257      0.00000     0.76605    0.00138     0.76743
      H   25    0.22598      0.00000     0.77235    0.00167     0.77402
      H   26    0.24617      0.00000     0.75211    0.00172     0.75383
      H   27    0.25030      0.00000     0.74834    0.00136     0.74970
      H   28    0.25226      0.00000     0.74636    0.00139     0.74774
 =======================================================================
   * Total *   -0.00000     27.98843    71.76660    0.24497   100.00000

 Normal termination of Gaussian 16 at Thu Jul 11 22:05:27 2024.
