 Gaussian 16, Revision A.03,

 -------------------------------------------------------
 # opt=CalcFc B3LYP/6-31G** SCRF=(Solvent=water) scf=xqc
 -------------------------------------------------------

 ----------------------------------
 KWEWNOOZQVJONF-UHFFFAOYSA-N_conf_0
 ----------------------------------
 Symbolic Z-matrix:
 Charge =  0 Multiplicity = 1

 SCF Done:  E(RB3LYP) =  -442.206444111     A.U. after   12 cycles
 SCF Done:  E(RB3LYP) =  -442.211411201     A.U. after   13 cycles
 SCF Done:  E(RB3LYP) =  -442.210493615     A.U. after   12 cycles
 SCF Done:  E(RB3LYP) =  -442.211647758     A.U. after   10 cycles
 SCF Done:  E(RB3LYP) =  -442.211676618     A.U. after    9 cycles
 SCF Done:  E(RB3LYP) =  -442.211697564     A.U. after    9 cycles
 SCF Done:  E(RB3LYP) =  -442.211706338     A.U. after    9 cycles
 Optimization completed.
    -- Stationary point found.
 Normal termination of Gaussian 16 at Thu Jul 11 20:06:18 2024.

 ----------------------------------------------------------------------
 # freq B3LYP/6-31G** SCRF=(Solvent=water) volume NMR pop=NPA density=c
 urrent Geom=AllCheck Guess=Read
 ----------------------------------------------------------------------

 Structure from the checkpoint file:  "KWEWNOOZQVJONF-UHFFFAOYSA-N_conf_0_1.chk"
 ----------------------------------
 KWEWNOOZQVJONF-UHFFFAOYSA-N_conf_0
 ----------------------------------
 Charge =  0 Multiplicity = 1

 SCF Done:  E(RB3LYP) =  -442.211706338     A.U. after    1 cycles

      1  N    Isotropic =   213.4369   Anisotropy =    43.5906

      2  C    Isotropic =    68.1980   Anisotropy =   130.1859

      3  C    Isotropic =    76.8339   Anisotropy =   129.0497

      4  C    Isotropic =    93.2655   Anisotropy =   119.1264

      5  C    Isotropic =    38.1184   Anisotropy =    84.9818

      6  F    Isotropic =   313.7507   Anisotropy =    80.4651

      7  C    Isotropic =    95.2679   Anisotropy =   102.9902

      8  C    Isotropic =    57.2277   Anisotropy =   144.3836

      9  N    Isotropic =   204.1995   Anisotropy =    51.0855

     10  H    Isotropic =    29.0733   Anisotropy =    12.6060

     11  H    Isotropic =    29.7301   Anisotropy =    12.1274

     12  H    Isotropic =    25.1055   Anisotropy =     5.2424

     13  H    Isotropic =    25.5240   Anisotropy =     3.4147

     14  H    Isotropic =    25.5518   Anisotropy =     5.6497

     15  H    Isotropic =    28.5587   Anisotropy =    12.8615

     16  H    Isotropic =    28.5653   Anisotropy =    11.2457

  Exact polarizability: 132.827  -6.992 120.855  -1.373   1.383  36.550
 Approx polarizability: 167.362  -9.460 148.436   0.502   1.076  46.050

                      1                      2                      3
                      A                      A                      A
 Frequencies --    145.3527               209.1417               227.3466
 Red. masses --      4.8664                 1.2130                 4.3141
 Frc consts  --      0.0606                 0.0313                 0.1314
 IR Inten    --      0.9797                47.4474                 9.5784

                      4                      5                      6
                      A                      A                      A
 Frequencies --    268.7823               330.5524               340.3534
 Red. masses --      1.0562                 6.2980                 2.7128
 Frc consts  --      0.0450                 0.4054                 0.1851
 IR Inten    --     30.5250                 3.4525                33.0514

                      7                      8                      9
                      A                      A                      A
 Frequencies --    378.8378               451.2664               459.1211
 Red. masses --      4.2256                 4.4835                 3.3961
 Frc consts  --      0.3573                 0.5379                 0.4218
 IR Inten    --     27.6737                24.3758                27.7025

                     10                     11                     12
                      A                      A                      A
 Frequencies --    501.1941               508.4164               585.4202
 Red. masses --      1.4311                 4.5122                 4.0665
 Frc consts  --      0.2118                 0.6872                 0.8211
 IR Inten    --    407.0726                 5.4864                22.6164

                     13                     14                     15
                      A                      A                      A
 Frequencies --    609.6992               696.6448               732.5472
 Red. masses --      4.2878                 4.2413                 5.3716
 Frc consts  --      0.9391                 1.2128                 1.6983
 IR Inten    --     15.5465                43.2406               118.9009

                     16                     17                     18
                      A                      A                      A
 Frequencies --    774.0016               788.8597               829.0883
 Red. masses --      2.4154                 1.8662                 1.3837
 Frc consts  --      0.8526                 0.6843                 0.5604
 IR Inten    --     59.4129                15.3070                25.5092

                     19                     20                     21
                      A                      A                      A
 Frequencies --    844.9010               908.6622               991.5486
 Red. masses --      1.4910                 1.2836                 3.3420
 Frc consts  --      0.6271                 0.6244                 1.9359
 IR Inten    --    243.6614                11.9888                61.0717

                     22                     23                     24
                      A                      A                      A
 Frequencies --   1080.1926              1126.1019              1160.8930
 Red. masses --      1.5953                 1.2859                 1.1824
 Frc consts  --      1.0967                 0.9608                 0.9389
 IR Inten    --     14.8099                 7.4711                31.8142

                     25                     26                     27
                      A                      A                      A
 Frequencies --   1194.2433              1266.6384              1311.1063
 Red. masses --      2.1603                 3.2689                 1.4831
 Frc consts  --      1.8153                 3.0900                 1.5021
 IR Inten    --    112.0514               111.6533                 9.5176

                     28                     29                     30
                      A                      A                      A
 Frequencies --   1340.5026              1387.2881              1482.6181
 Red. masses --      3.9371                 4.4907                 4.1519
 Frc consts  --      4.1683                 5.0921                 5.3771
 IR Inten    --     62.5070                14.7131                20.0912

                     31                     32                     33
                      A                      A                      A
 Frequencies --   1552.5050              1632.3743              1648.1630
 Red. masses --      3.2741                 1.4537                 5.9547
 Frc consts  --      4.6495                 2.2822                 9.5304
 IR Inten    --    320.6852                 6.2787                32.2356

                     34                     35                     36
                      A                      A                      A
 Frequencies --   1663.5904              1677.3960              3180.7358
 Red. masses --      1.3973                 2.0481                 1.0896
 Frc consts  --      2.2784                 3.3953                 6.4952
 IR Inten    --    212.3036               106.6996                23.4520

                     37                     38                     39
                      A                      A                      A
 Frequencies --   3205.3289              3223.6613              3494.5530
 Red. masses --      1.0917                 1.0938                 1.0536
 Frc consts  --      6.6082                 6.6969                 7.5804
 IR Inten    --      6.7699                 6.2171                 4.0591

                     40                     41                     42
                      A                      A                      A
 Frequencies --   3588.3322              3597.0064              3697.9350
 Red. masses --      1.0490                 1.0897                 1.0988
 Frc consts  --      7.9583                 8.3068                 8.8528
 IR Inten    --     45.2150                 9.4777                32.5119

 - Thermochemistry -
 -------------------
 Temperature   298.150 Kelvin.  Pressure   1.00000 Atm.
 Atom     1 has atomic number  7 and mass  14.00307

 Molecular mass:   126.05933 amu.
 Principal axes and moments of inertia in atomic units:
                           1         2         3
     Eigenvalues --   585.576201402.579101982.08541
           X            0.99988  -0.01345  -0.00751
           Y            0.01349   0.99990   0.00452
           Z            0.00745  -0.00462   0.99996
 This molecule is an asymmetric top.
 Rotational symmetry number  1.
 Warning -- assumption of classical behavior for rotation
           may cause significant error
 Rotational temperatures (Kelvin)      0.14791     0.06175     0.04370
 Rotational constants (GHZ):           3.08199     1.28673     0.91053
 Zero-point vibrational energy     329528.7 (Joules/Mol)
                                   78.75926 (Kcal/Mol)
 Warning -- explicit consideration of  13 degrees of freedom as
           vibrations may cause significant error
 Vibrational temperatures:    209.13   300.91   327.10   386.72   475.59
          (Kelvin)            489.69   545.06   649.27   660.57   721.11
                              731.50   842.29   877.22  1002.32  1053.97
                             1113.62  1134.99  1192.87  1215.62  1307.36
                             1426.62  1554.16  1620.21  1670.27  1718.25
                             1822.41  1886.39  1928.68  1996.00  2133.16
                             2233.71  2348.62  2371.34  2393.54  2413.40
                             4576.37  4611.75  4638.13  5027.88  5162.81
                             5175.29  5320.50

 Zero-point correction=                           0.125511 (Hartree/Particle)
 Thermal correction to Energy=                    0.133646
 Thermal correction to Enthalpy=                  0.134590
 Thermal correction to Gibbs Free Energy=         0.093337
 Sum of electronic and zero-point Energies=           -442.086195
 Sum of electronic and thermal Energies=              -442.078060
 Sum of electronic and thermal Enthalpies=            -442.077116
 Sum of electronic and thermal Free Energies=         -442.118369

                     E (Thermal)             CV                S
                      KCal/Mol        Cal/Mol-Kelvin    Cal/Mol-Kelvin
 Total                   83.864             32.087             86.823
 Electronic               0.000              0.000              0.000
 Translational            0.889              2.981             40.408
 Rotational               0.889              2.981             28.878
 Vibrational             82.087             26.126             17.537
 Vibration     1          0.617              1.908              2.732
 Vibration     2          0.642              1.827              2.051
 Vibration     3          0.651              1.799              1.900
 Vibration     4          0.673              1.731              1.604
 Vibration     5          0.713              1.614              1.257
 Vibration     6          0.720              1.595              1.210
 Vibration     7          0.749              1.515              1.044
 Vibration     8          0.810              1.358              0.792
 Vibration     9          0.817              1.341              0.769
 Vibration    10          0.857              1.247              0.655
 Vibration    11          0.864              1.231              0.637
 Vibration    12          0.942              1.063              0.475
 Vibration    13          0.969              1.011              0.433

                           ! Non-Optimized Parameters !
 Normal termination of Gaussian 16 at Thu Jul 11 20:23:16 2024.
 Gaussian 16:  EM64L-G16RevA.03 25-Dec-2016

 ----------------------------------------------------------------------
 # TD(NStates=10, Root=1) B3LYP/6-31G** SCRF=(Solvent=water) volume pop
 =NPA density=current Geom=AllCheck Guess=Read
 ----------------------------------------------------------------------

 Structure from the checkpoint file:  "KWEWNOOZQVJONF-UHFFFAOYSA-N_conf_0_2.chk"
 ----------------------------------
 KWEWNOOZQVJONF-UHFFFAOYSA-N_conf_0
 ----------------------------------
 Charge =  0 Multiplicity = 1

                         Standard orientation:
 ---------------------------------------------------------------------
 Center     Atomic      Atomic             Coordinates (Angstroms)
 Number     Number       Type             X           Y           Z
 ---------------------------------------------------------------------
      1          7           0       -2.486876   -0.882998   -0.051385
      2          6           0       -1.099192   -0.583591   -0.002979
      3          6           0       -0.122114   -1.580823   -0.009898
      4          6           0        1.244798   -1.280224   -0.017154
      5          6           0        1.606237    0.057155    0.006975
      6          9           0        2.925855    0.387874    0.021632
      7          6           0        0.672227    1.084997    0.011896
      8          6           0       -0.696376    0.778841   -0.011786
      9          7           0       -1.644194    1.793338   -0.110493
     10          1           0       -2.647445   -1.885186   -0.048695
     11          1           0       -2.991728   -0.497109    0.744291
     12          1           0       -0.437636   -2.620992   -0.001055
     13          1           0        2.000109   -2.057429   -0.022353
     14          1           0        1.007246    2.117281    0.009926
     15          1           0       -1.381380    2.681858    0.293120
     16          1           0       -2.597848    1.540203    0.100899
 ---------------------------------------------------------------------

 SCF Done:  E(RB3LYP) =  -442.211706338     A.U. after    1 cycles

 Excitation energies and oscillator strengths:

 Excited State   1:      Singlet-A      4.6290 eV  267.84 nm  f=0.1566  <S**2>=0.000
      32 -> 35         0.21370
      33 -> 34         0.66743
 This state for optimization and/or second-order correction.
 Total Energy, E(TD-HF/TD-DFT) =  -442.041595316
 Copying the excited state density for this state as the 1-particle RhoCI density.

 Excited State   2:      Singlet-A      5.3892 eV  230.06 nm  f=0.1828  <S**2>=0.000
      32 -> 34        -0.22404
      33 -> 35         0.66052

 Excited State   3:      Singlet-A      5.9417 eV  208.67 nm  f=0.2989  <S**2>=0.000
      32 -> 34         0.65345
      33 -> 35         0.22226

 Excited State   4:      Singlet-A      6.2184 eV  199.38 nm  f=0.1404  <S**2>=0.000
      32 -> 35         0.25888
      33 -> 36         0.64544

 Excited State   5:      Singlet-A      6.2827 eV  197.34 nm  f=0.5825  <S**2>=0.000
      31 -> 34        -0.15109
      32 -> 35         0.59661
      33 -> 34        -0.18663
      33 -> 36        -0.27718

 Excited State   6:      Singlet-A      6.8567 eV  180.82 nm  f=0.0019  <S**2>=0.000
      33 -> 37         0.70305

 Excited State   7:      Singlet-A      7.2201 eV  171.72 nm  f=0.0042  <S**2>=0.000
      32 -> 36         0.48768
      33 -> 38         0.49989

 Excited State   8:      Singlet-A      7.3004 eV  169.83 nm  f=0.1764  <S**2>=0.000
      30 -> 34        -0.10826
      30 -> 35        -0.11541
      31 -> 34         0.65516
      32 -> 35         0.13599

 Excited State   9:      Singlet-A      7.4240 eV  167.00 nm  f=0.0183  <S**2>=0.000
      31 -> 34        -0.10693
      32 -> 36         0.49364
      33 -> 38        -0.47612

 Excited State  10:      Singlet-A      7.7238 eV  160.52 nm  f=0.0892  <S**2>=0.000
      30 -> 34         0.52371
      30 -> 35        -0.12667
      31 -> 35         0.22680
      32 -> 37         0.36671

 The electronic state is 1-A.
 Alpha  occ. eigenvalues --  -24.69749 -14.33925 -14.33369 -10.26072 -10.23143
 Alpha  occ. eigenvalues --  -10.21926 -10.18926 -10.18441 -10.18207  -1.20633
 Alpha  occ. eigenvalues --   -0.93126  -0.88806  -0.83161  -0.73780  -0.71580
 Alpha  occ. eigenvalues --   -0.62175  -0.60030  -0.54003  -0.52585  -0.49958
 Alpha  occ. eigenvalues --   -0.48239  -0.46234  -0.45078  -0.44867  -0.42695
 Alpha  occ. eigenvalues --   -0.40067  -0.38063  -0.37825  -0.34857  -0.30956
 Alpha  occ. eigenvalues --   -0.29457  -0.22772  -0.19169
 Alpha virt. eigenvalues --    0.00446   0.02334   0.07533   0.09807   0.11363
 Alpha virt. eigenvalues --    0.14226   0.15678   0.17702   0.18106   0.19342
 Alpha virt. eigenvalues --    0.20419   0.24946   0.27502   0.33384   0.34454

 Mulliken charges:
               1
     1  N   -0.642485
     2  C    0.217633
     3  C   -0.201219
     4  C   -0.165216
     5  C    0.327888
     6  F   -0.313711
     7  C   -0.253136
     8  C    0.239196
     9  N   -0.625929
    10  H    0.293228
    11  H    0.294615
    12  H    0.074435
    13  H    0.096262
    14  H    0.078733
    15  H    0.290349
    16  H    0.289357
 Sum of Mulliken charges =   0.00000

 Dipole moment (field-independent basis, Debye):
    X=             -5.8589    Y=              0.4004    Z=              2.2757  Tot=              6.2981
 Quadrupole moment (field-independent basis, Debye-Ang):
   XX=            -44.0935   YY=            -41.5069   ZZ=            -54.8861
   XY=             -1.3160   XZ=             -5.9679   YZ=              1.8490

 Summary of Natural Population Analysis:

                                       Natural Population
                Natural  -----------------------------------------------
    Atom  No    Charge         Core      Valence    Rydberg      Total
 -----------------------------------------------------------------------
      N    1   -0.79292      1.99952     5.78089    0.01251     7.79292
      C    2    0.12564      1.99891     3.85716    0.01829     5.87436
      C    3   -0.39325      1.99908     4.37417    0.02000     6.39325
      C    4   -0.31368      1.99901     4.29642    0.01825     6.31368
      C    5    0.42058      1.99842     3.55275    0.02825     5.57942
      F    6   -0.34141      1.99994     7.33630    0.00516     9.34141
      C    7   -0.47297      1.99897     4.45235    0.02165     6.47297
      C    8    0.12396      1.99894     3.85730    0.01980     5.87604
      N    9   -0.75969      1.99950     5.74778    0.01242     7.75969
      H   10    0.42125      0.00000     0.57629    0.00246     0.57875
      H   11    0.41637      0.00000     0.58056    0.00307     0.58363
      H   12    0.23313      0.00000     0.76530    0.00157     0.76687
      H   13    0.24947      0.00000     0.74866    0.00187     0.75053
      H   14    0.24322      0.00000     0.75485    0.00193     0.75678
      H   15    0.41999      0.00000     0.57559    0.00442     0.58001
      H   16    0.42030      0.00000     0.57701    0.00269     0.57970
 =======================================================================
   * Total *   -0.00000     17.99228    47.83339    0.17433    66.00000

 Normal termination of Gaussian 16 at Thu Jul 11 20:45:23 2024.
