 Gaussian 16, Revision A.03,

 -------------------------------------------------------
 # opt=CalcFc B3LYP/6-31G** SCRF=(Solvent=water) scf=xqc
 -------------------------------------------------------

 ----------------------------------
 FDLQZKYLHJJBHD-UHFFFAOYSA-N_conf_0
 ----------------------------------
 Symbolic Z-matrix:
 Charge =  0 Multiplicity = 1

 SCF Done:  E(RB3LYP) =  -421.593065107     A.U. after   11 cycles
 SCF Done:  E(RB3LYP) =  -421.595959052     A.U. after   12 cycles
 SCF Done:  E(RB3LYP) =  -421.595746900     A.U. after   10 cycles
 SCF Done:  E(RB3LYP) =  -421.596146780     A.U. after   11 cycles
 SCF Done:  E(RB3LYP) =  -421.596307917     A.U. after   10 cycles
 SCF Done:  E(RB3LYP) =  -421.596343504     A.U. after    9 cycles
 SCF Done:  E(RB3LYP) =  -421.596381249     A.U. after   10 cycles
 SCF Done:  E(RB3LYP) =  -421.596391624     A.U. after    9 cycles
 SCF Done:  E(RB3LYP) =  -421.596399217     A.U. after    9 cycles
 SCF Done:  E(RB3LYP) =  -421.596398817     A.U. after    9 cycles
 SCF Done:  E(RB3LYP) =  -421.596398814     A.U. after    9 cycles
 SCF Done:  E(RB3LYP) =  -421.596401224     A.U. after    9 cycles
 SCF Done:  E(RB3LYP) =  -421.596402136     A.U. after    7 cycles
 SCF Done:  E(RB3LYP) =  -421.596402919     A.U. after    8 cycles
 Optimization completed.
    -- Stationary point found.
 Normal termination of Gaussian 16 at Wed Jul 17 17:08:22 2024.

 ----------------------------------------------------------------------
 # freq B3LYP/6-31G** SCRF=(Solvent=water) volume NMR pop=NPA density=c
 urrent Geom=AllCheck Guess=Read
 ----------------------------------------------------------------------

 Structure from the checkpoint file:  "FDLQZKYLHJJBHD-UHFFFAOYSA-N_conf_0_1.chk"
 ----------------------------------
 FDLQZKYLHJJBHD-UHFFFAOYSA-N_conf_0
 ----------------------------------
 Charge =  0 Multiplicity = 1

 SCF Done:  E(RB3LYP) =  -421.596402919     A.U. after    1 cycles

      1  N    Isotropic =   233.4801   Anisotropy =    31.5005

      2  C    Isotropic =   142.8289   Anisotropy =    28.1685

      3  C    Isotropic =    52.9714   Anisotropy =   178.0541

      4  C    Isotropic =    70.5284   Anisotropy =   148.9054

      5  C    Isotropic =    69.6365   Anisotropy =   163.5139

      6  C    Isotropic =    70.5283   Anisotropy =   148.9085

      7  C    Isotropic =    52.9713   Anisotropy =   178.0538

      8  C    Isotropic =   142.8292   Anisotropy =    28.1806

      9  N    Isotropic =   233.4909   Anisotropy =    31.4906

     10  C    Isotropic =    71.6918   Anisotropy =   175.0868

     11  H    Isotropic =    30.7915   Anisotropy =    15.4952

     12  H    Isotropic =    31.2072   Anisotropy =    11.4194

     13  H    Isotropic =    27.7973   Anisotropy =     5.8412

     14  H    Isotropic =    27.8048   Anisotropy =     8.2699

     15  H    Isotropic =    24.6258   Anisotropy =     6.0513

     16  H    Isotropic =    24.4621   Anisotropy =     4.4013

     17  H    Isotropic =    24.6258   Anisotropy =     6.0518

     18  H    Isotropic =    27.7973   Anisotropy =     5.8412

     19  H    Isotropic =    27.8044   Anisotropy =     8.2703

     20  H    Isotropic =    30.7916   Anisotropy =    15.4947

     21  H    Isotropic =    31.2071   Anisotropy =    11.4212

     22  H    Isotropic =    23.1239   Anisotropy =    12.8641

  Exact polarizability: 154.709   0.000 144.646 -10.313  -0.006  70.594
 Approx polarizability: 173.215  -0.000 170.514 -12.976  -0.009  83.002

                      1                      2                      3
                      A                      A                      A
 Frequencies --     38.3821                43.7048               143.7733
 Red. masses --      2.7508                 2.5286                 3.6934
 Frc consts  --      0.0024                 0.0028                 0.0450
 IR Inten    --      1.6364                 7.5393                 0.5734

                      4                      5                      6
                      A                      A                      A
 Frequencies --    148.6538               214.7171               275.3616
 Red. masses --      2.3064                 1.8128                 1.4645
 Frc consts  --      0.0300                 0.0492                 0.0654
 IR Inten    --     26.3436                14.9584                35.2918

                      7                      8                      9
                      A                      A                      A
 Frequencies --    276.5449               292.4039               413.6645
 Red. masses --      1.2390                 3.5828                 3.4875
 Frc consts  --      0.0558                 0.1805                 0.3516
 IR Inten    --     94.3722                 1.2377                23.6545

                     10                     11                     12
                      A                      A                      A
 Frequencies --    431.3382               450.0371               515.4215
 Red. masses --      3.2395                 3.3587                 3.6305
 Frc consts  --      0.3551                 0.4008                 0.5682
 IR Inten    --      4.6656                 4.9267                 3.8971

                     13                     14                     15
                      A                      A                      A
 Frequencies --    579.7078               606.0668               715.2897
 Red. masses --      4.0488                 4.3082                 2.5265
 Frc consts  --      0.8017                 0.9324                 0.7616
 IR Inten    --      3.2179                14.4211                11.4716

                     16                     17                     18
                      A                      A                      A
 Frequencies --    730.5378               793.5187               874.3840
 Red. masses --      4.5619                 1.3421                 1.2664
 Frc consts  --      1.4344                 0.4979                 0.5704
 IR Inten    --      9.3339                50.7424               229.9018

                     19                     20                     21
                      A                      A                      A
 Frequencies --    877.0644               905.7795               922.7800
 Red. masses --      1.2758                 2.2427                 1.3494
 Frc consts  --      0.5782                 1.0841                 0.6770
 IR Inten    --     60.0548                21.1316                26.9872

                     22                     23                     24
                      A                      A                      A
 Frequencies --    953.5139               985.3748              1001.3632
 Red. masses --      1.4428                 1.2916                 2.0896
 Frc consts  --      0.7729                 0.7389                 1.2345
 IR Inten    --     14.1201                 0.1206                59.1445

                     25                     26                     27
                      A                      A                      A
 Frequencies --   1015.2666              1023.3600              1060.6008
 Red. masses --      4.7822                 2.2349                 2.3672
 Frc consts  --      2.9043                 1.3790                 1.5689
 IR Inten    --     10.7961                17.1222                 2.8678

                     28                     29                     30
                      A                      A                      A
 Frequencies --   1064.8982              1124.7005              1162.3548
 Red. masses --      1.9969                 1.6866                 1.6998
 Frc consts  --      1.3342                 1.2570                 1.3530
 IR Inten    --      8.0603                 0.3347                26.5923

                     31                     32                     33
                      A                      A                      A
 Frequencies --   1179.7381              1182.8508              1191.6055
 Red. masses --      1.2463                 1.1806                 1.1385
 Frc consts  --      1.0220                 0.9732                 0.9525
 IR Inten    --      9.2999                 2.0473                 0.4063

                     34                     35                     36
                      A                      A                      A
 Frequencies --   1262.3219              1287.1382              1320.1113
 Red. masses --      2.4999                 1.5317                 1.2768
 Frc consts  --      2.3470                 1.4951                 1.3110
 IR Inten    --      0.5861                21.5211                 0.0917

                     37                     38                     39
                      A                      A                      A
 Frequencies --   1343.3737              1362.1101              1428.5855
 Red. masses --      1.3602                 2.7535                 1.4245
 Frc consts  --      1.4462                 3.0100                 1.7128
 IR Inten    --      6.7683                 3.7669                48.1898

                     40                     41                     42
                      A                      A                      A
 Frequencies --   1428.8255              1481.8696              1508.3622
 Red. masses --      1.6367                 2.3734                 1.0940
 Frc consts  --      1.9687                 3.0708                 1.4664
 IR Inten    --     24.7451                28.1660                 3.4327

                     43                     44                     45
                      A                      A                      A
 Frequencies --   1511.4735              1525.3214              1641.5009
 Red. masses --      1.1138                 2.4431                 5.6764
 Frc consts  --      1.4991                 3.3490                 9.0117
 IR Inten    --      0.0457                13.4639                 2.4058

                     46                     47                     48
                      A                      A                      A
 Frequencies --   1648.1380              1653.7705              1662.1301
 Red. masses --      1.5573                 1.0904                 2.2593
 Frc consts  --      2.4923                 1.7571                 3.6775
 IR Inten    --     30.3583                 4.0656                54.5299

                     49                     50                     51
                      A                      A                      A
 Frequencies --   2974.3695              2975.0056              3031.4782
 Red. masses --      1.0700                 1.0700                 1.0915
 Frc consts  --      5.5771                 5.5797                 5.9101
 IR Inten    --    151.4072                80.5850                82.0438

                     52                     53                     54
                      A                      A                      A
 Frequencies --   3031.6623              3169.3486              3175.5590
 Red. masses --      1.0914                 1.0858                 1.0906
 Frc consts  --      5.9100                 6.4262                 6.4795
 IR Inten    --     20.5435                 0.0408                43.3895

                     55                     56                     57
                      A                      A                      A
 Frequencies --   3195.1233              3225.5652              3483.4602
 Red. masses --      1.0964                 1.0888                 1.0506
 Frc consts  --      6.5949                 6.6745                 7.5115
 IR Inten    --     46.3984                 1.0663                 1.0088

                     58                     59                     60
                      A                      A                      A
 Frequencies --   3483.4854              3565.4958              3565.5219
 Red. masses --      1.0506                 1.0922                 1.0922
 Frc consts  --      7.5116                 8.1809                 8.1809
 IR Inten    --      1.6408                 0.1033                 0.0210

 - Thermochemistry -
 -------------------
 Temperature   298.150 Kelvin.  Pressure   1.00000 Atm.
 Atom     1 has atomic number  7 and mass  14.00307

 Molecular mass:   136.10005 amu.
 Principal axes and moments of inertia in atomic units:
                           1         2         3
     Eigenvalues --  1014.796941809.567992701.02656
           X            1.00000   0.00000  -0.00105
           Y           -0.00000   1.00000  -0.00000
           Z            0.00105   0.00000   1.00000
 This molecule is an asymmetric top.
 Rotational symmetry number  1.
 Warning -- assumption of classical behavior for rotation
           may cause significant error
 Rotational temperatures (Kelvin)      0.08535     0.04786     0.03207
 Rotational constants (GHZ):           1.77843     0.99733     0.66817
 Zero-point vibrational energy     503244.2 (Joules/Mol)
                                  120.27826 (Kcal/Mol)
 Warning -- explicit consideration of  14 degrees of freedom as
           vibrations may cause significant error
 Vibrational temperatures:     55.22    62.88   206.86   213.88   308.93
          (Kelvin)            396.18   397.89   420.70   595.17   620.60
                              647.50   741.58   834.07   871.99  1029.14
                             1051.08  1141.70  1258.04  1261.90  1303.21
                             1327.67  1371.89  1417.73  1440.74  1460.74
                             1472.39  1525.97  1532.15  1618.19  1672.37
                             1697.38  1701.86  1714.45  1816.20  1851.90
                             1899.35  1932.82  1959.77  2055.42  2055.76
                             2132.08  2170.20  2174.67  2194.60  2361.75
                             2371.30  2379.41  2391.43  4279.45  4280.37
                             4361.62  4361.89  4559.99  4568.92  4597.07
                             4640.87  5011.92  5011.96  5129.95  5129.99

 Zero-point correction=                           0.191676 (Hartree/Particle)
 Thermal correction to Energy=                    0.201713
 Thermal correction to Enthalpy=                  0.202657
 Thermal correction to Gibbs Free Energy=         0.155327
 Sum of electronic and zero-point Energies=           -421.404727
 Sum of electronic and thermal Energies=              -421.394690
 Sum of electronic and thermal Enthalpies=            -421.393746
 Sum of electronic and thermal Free Energies=         -421.441076

                     E (Thermal)             CV                S
                      KCal/Mol        Cal/Mol-Kelvin    Cal/Mol-Kelvin
 Total                  126.577             37.501             99.615
 Electronic               0.000              0.000              0.000
 Translational            0.889              2.981             40.637
 Rotational               0.889              2.981             29.985
 Vibrational            124.799             31.540             28.994
 Vibration     1          0.594              1.982              5.341
 Vibration     2          0.595              1.980              5.084
 Vibration     3          0.616              1.909              2.753
 Vibration     4          0.618              1.904              2.689
 Vibration     5          0.645              1.819              2.003
 Vibration     6          0.677              1.719              1.562
 Vibration     7          0.678              1.717              1.555
 Vibration     8          0.688              1.688              1.460
 Vibration     9          0.777              1.441              0.914
 Vibration    10          0.792              1.402              0.854
 Vibration    11          0.809              1.361              0.796
 Vibration    12          0.870              1.216              0.621
 Vibration    13          0.936              1.075              0.486
 Vibration    14          0.965              1.019              0.439

 Optimization completed.
    -- Stationary point found.
 Normal termination of Gaussian 16 at Wed Jul 17 17:13:42 2024.
 Gaussian 16:  ES64L-G16RevA.03 25-Dec-2016

 ----------------------------------------------------------------------
 # TD(NStates=10, Root=1) B3LYP/6-31G** SCRF=(Solvent=water) volume pop
 =NPA density=current Geom=AllCheck Guess=Read
 ----------------------------------------------------------------------

 Structure from the checkpoint file:  "FDLQZKYLHJJBHD-UHFFFAOYSA-N_conf_0_2.chk"
 ----------------------------------
 FDLQZKYLHJJBHD-UHFFFAOYSA-N_conf_0
 ----------------------------------
 Charge =  0 Multiplicity = 1

                         Standard orientation:
 ---------------------------------------------------------------------
 Center     Atomic      Atomic             Coordinates (Angstroms)
 Number     Number       Type             X           Y           Z
 ---------------------------------------------------------------------
      1          7           0       -2.566332   -1.769080   -0.424002
      2          6           0       -2.516152   -0.520442    0.350232
      3          6           0       -1.212445    0.231361    0.148340
      4          6           0       -1.201577    1.632305    0.139301
      5          6           0       -0.000119    2.328586   -0.000092
      6          6           0        1.201394    1.632386   -0.139331
      7          6           0        1.212402    0.231431   -0.148078
      8          6           0        2.516152   -0.520219   -0.350203
      9          7           0        2.566580   -1.768988    0.423779
     10          6           0        0.000008   -0.453236    0.000194
     11          1           0       -3.437173   -2.251924   -0.212649
     12          1           0       -2.610586   -1.542182   -1.416018
     13          1           0       -2.610248   -0.794203    1.410314
     14          1           0       -3.351445    0.167224    0.140313
     15          1           0       -2.136122    2.178292    0.243834
     16          1           0       -0.000164    3.415088   -0.000173
     17          1           0        2.135894    2.178445   -0.243908
     18          1           0        2.610155   -0.793752   -1.410361
     19          1           0        3.351422    0.167490   -0.140292
     20          1           0        3.437408   -2.251728    0.212147
     21          1           0        2.611042   -1.542261    1.415824
     22          1           0        0.000102   -1.537037    0.000353
 ---------------------------------------------------------------------

 SCF Done:  E(RB3LYP) =  -421.596402919     A.U. after    1 cycles

 Excitation energies and oscillator strengths:

 Excited State   1:      Singlet-A      5.2538 eV  235.99 nm  f=0.0004  <S**2>=0.000
      34 -> 39        -0.22584
      35 -> 38        -0.17607
      36 -> 39         0.41645
      37 -> 38         0.49364
 This state for optimization and/or second-order correction.
 Total Energy, E(TD-HF/TD-DFT) =  -421.403329016
 Copying the excited state density for this state as the 1-particle RhoCI density.

 Excited State   2:      Singlet-A      5.5780 eV  222.27 nm  f=0.0031  <S**2>=0.000
      34 -> 38         0.13524
      35 -> 39        -0.18790
      36 -> 38         0.47189
      37 -> 39        -0.47008

 Excited State   3:      Singlet-A      5.6241 eV  220.45 nm  f=0.0850  <S**2>=0.000
      34 -> 39         0.23040
      35 -> 38        -0.29558
      36 -> 39         0.45621
      37 -> 38        -0.38495

 Excited State   4:      Singlet-A      5.7143 eV  216.97 nm  f=0.0436  <S**2>=0.000
      34 -> 38         0.23862
      35 -> 39         0.27821
      36 -> 38         0.44727
      37 -> 39         0.40581

 Excited State   5:      Singlet-A      5.8364 eV  212.43 nm  f=0.0128  <S**2>=0.000
      34 -> 39         0.41532
      35 -> 38         0.49165
      36 -> 39         0.24318
      37 -> 38         0.16053

 Excited State   6:      Singlet-A      6.0624 eV  204.51 nm  f=0.0335  <S**2>=0.000
      34 -> 38        -0.41689
      35 -> 39         0.51258
      36 -> 38         0.10395
      37 -> 39        -0.22042

 Excited State   7:      Singlet-A      6.5445 eV  189.45 nm  f=1.0044  <S**2>=0.000
      34 -> 39         0.46705
      35 -> 38        -0.36873
      36 -> 39        -0.23511
      37 -> 38         0.27957

 Excited State   8:      Singlet-A      6.6158 eV  187.41 nm  f=0.7165  <S**2>=0.000
      34 -> 38         0.49651
      35 -> 39         0.34743
      36 -> 38        -0.25262
      37 -> 39        -0.24888

 Excited State   9:      Singlet-A      7.6055 eV  163.02 nm  f=0.0081  <S**2>=0.000
      32 -> 38        -0.31945
      33 -> 39         0.55661
      36 -> 41        -0.17847
      37 -> 40         0.16891

 Excited State  10:      Singlet-A      7.6392 eV  162.30 nm  f=0.0168  <S**2>=0.000
      33 -> 38        -0.35981
      34 -> 40         0.16432
      35 -> 41        -0.22448
      36 -> 40         0.37957
      37 -> 41        -0.35713

 The electronic state is 1-A.
 Alpha  occ. eigenvalues --  -14.31330 -14.31329 -10.20957 -10.20956 -10.19064
 Alpha  occ. eigenvalues --  -10.19063 -10.18620 -10.18308 -10.18303 -10.17648
 Alpha  occ. eigenvalues --   -0.88414  -0.87864  -0.84108  -0.75704  -0.74154
 Alpha  occ. eigenvalues --   -0.66387  -0.65243  -0.58565  -0.56482  -0.50500
 Alpha  occ. eigenvalues --   -0.48081  -0.47794  -0.47204  -0.43867  -0.42768
 Alpha  occ. eigenvalues --   -0.41055  -0.40729  -0.39670  -0.38606  -0.38116
 Alpha  occ. eigenvalues --   -0.34408  -0.32955  -0.32925  -0.24890  -0.24614
 Alpha  occ. eigenvalues --   -0.23381  -0.23194
 Alpha virt. eigenvalues --    0.00013   0.00060   0.09269   0.09413   0.11425
 Alpha virt. eigenvalues --    0.13583   0.14188   0.14651   0.15843   0.16719
 Alpha virt. eigenvalues --    0.17480   0.18295   0.18652   0.20481   0.21047

 Mulliken charges:
               1
     1  N   -0.612221
     2  C   -0.111498
     3  C    0.085960
     4  C   -0.146271
     5  C   -0.122933
     6  C   -0.146267
     7  C    0.085964
     8  C   -0.111503
     9  N   -0.612230
    10  C   -0.150830
    11  H    0.260503
    12  H    0.258853
    13  H    0.126598
    14  H    0.105110
    15  H    0.085123
    16  H    0.087226
    17  H    0.085119
    18  H    0.126601
    19  H    0.105109
    20  H    0.260505
    21  H    0.258853
    22  H    0.082229
 Sum of Mulliken charges =  -0.00000

 Dipole moment (field-independent basis, Debye):
    X=              0.0001    Y=             -0.0210    Z=             -0.0003  Tot=              0.0210
 Quadrupole moment (field-independent basis, Debye-Ang):
   XX=            -37.9774   YY=            -62.0971   ZZ=            -59.0240
   XY=              0.0004   XZ=              2.3641   YZ=             -0.0002

 Summary of Natural Population Analysis:

                                       Natural Population
                Natural  -----------------------------------------------
    Atom  No    Charge         Core      Valence    Rydberg      Total
 -----------------------------------------------------------------------
      N    1   -0.89366      1.99965     5.87961    0.01441     7.89366
      C    2   -0.28180      1.99929     4.26778    0.01473     6.28180
      C    3   -0.05062      1.99905     4.03333    0.01824     6.05062
      C    4   -0.23992      1.99907     4.22422    0.01663     6.23992
      C    5   -0.26906      1.99915     4.25100    0.01891     6.26906
      C    6   -0.23992      1.99907     4.22422    0.01663     6.23992
      C    7   -0.05062      1.99905     4.03333    0.01824     6.05062
      C    8   -0.28180      1.99929     4.26779    0.01473     6.28180
      N    9   -0.89368      1.99965     5.87962    0.01441     7.89368
      C   10   -0.25968      1.99901     4.24261    0.01805     6.25968
      H   11    0.39587      0.00000     0.60103    0.00310     0.60413
      H   12    0.39156      0.00000     0.60498    0.00346     0.60844
      H   13    0.24444      0.00000     0.75211    0.00345     0.75556
      H   14    0.22640      0.00000     0.77100    0.00260     0.77360
      H   15    0.23201      0.00000     0.76626    0.00173     0.76799
      H   16    0.23532      0.00000     0.76321    0.00147     0.76468
      H   17    0.23200      0.00000     0.76626    0.00173     0.76800
      H   18    0.24444      0.00000     0.75211    0.00345     0.75556
      H   19    0.22640      0.00000     0.77099    0.00260     0.77360
      H   20    0.39587      0.00000     0.60103    0.00309     0.60413
      H   21    0.39156      0.00000     0.60498    0.00346     0.60844
      H   22    0.24490      0.00000     0.75216    0.00294     0.75510
 =======================================================================
   * Total *    0.00000     19.99229    53.80966    0.19805    74.00000

 Normal termination of Gaussian 16 at Wed Jul 17 17:20:40 2024.
