 Gaussian 16, Revision A.03,

 -------------------------------------------------------
 # opt=CalcFc B3LYP/6-31G** SCRF=(Solvent=water) scf=xqc
 -------------------------------------------------------

 ----------------------------------
 FDLQZKYLHJJBHD-UHFFFAOYSA-N_conf_1
 ----------------------------------
 Symbolic Z-matrix:
 Charge =  0 Multiplicity = 1

 SCF Done:  E(RB3LYP) =  -421.594336726     A.U. after   12 cycles
 SCF Done:  E(RB3LYP) =  -421.597255561     A.U. after   12 cycles
 SCF Done:  E(RB3LYP) =  -421.597044044     A.U. after   12 cycles
 SCF Done:  E(RB3LYP) =  -421.584247829     A.U. after   11 cycles
 SCF Done:  E(RB3LYP) =  -421.597349830     A.U. after   10 cycles
 SCF Done:  E(RB3LYP) =  -421.597354865     A.U. after    8 cycles
 SCF Done:  E(RB3LYP) =  -421.597357061     A.U. after    7 cycles
 SCF Done:  E(RB3LYP) =  -421.597359081     A.U. after    8 cycles
 SCF Done:  E(RB3LYP) =  -421.597366888     A.U. after    9 cycles
 SCF Done:  E(RB3LYP) =  -421.597356491     A.U. after   10 cycles
 SCF Done:  E(RB3LYP) =  -421.597374805     A.U. after   10 cycles
 SCF Done:  E(RB3LYP) =  -421.597374343     A.U. after    9 cycles
 SCF Done:  E(RB3LYP) =  -421.597375519     A.U. after    8 cycles
 SCF Done:  E(RB3LYP) =  -421.597375522     A.U. after    7 cycles
 SCF Done:  E(RB3LYP) =  -421.597375493     A.U. after    7 cycles
 Optimization completed.
    -- Stationary point found.
 Normal termination of Gaussian 16 at Wed Jul 17 17:09:01 2024.

 ----------------------------------------------------------------------
 # freq B3LYP/6-31G** SCRF=(Solvent=water) volume NMR pop=NPA density=c
 urrent Geom=AllCheck Guess=Read
 ----------------------------------------------------------------------

 Structure from the checkpoint file:  "FDLQZKYLHJJBHD-UHFFFAOYSA-N_conf_1_1.chk"
 ----------------------------------
 FDLQZKYLHJJBHD-UHFFFAOYSA-N_conf_1
 ----------------------------------
 Charge =  0 Multiplicity = 1

 SCF Done:  E(RB3LYP) =  -421.597375493     A.U. after    1 cycles

      1  N    Isotropic =   233.4411   Anisotropy =    31.2918

      2  C    Isotropic =   142.8609   Anisotropy =    28.5586

      3  C    Isotropic =    52.3604   Anisotropy =   178.4286

      4  C    Isotropic =    71.4623   Anisotropy =   171.5704

      5  C    Isotropic =    68.2023   Anisotropy =   166.4735

      6  C    Isotropic =    70.5240   Anisotropy =   151.9670

      7  C    Isotropic =    51.4437   Anisotropy =   186.6873

      8  C    Isotropic =   141.9274   Anisotropy =    24.8962

      9  N    Isotropic =   217.3756   Anisotropy =    30.1707

     10  C    Isotropic =    69.3787   Anisotropy =   135.3600

     11  H    Isotropic =    30.8101   Anisotropy =    15.4694

     12  H    Isotropic =    31.2450   Anisotropy =    11.5208

     13  H    Isotropic =    27.8393   Anisotropy =     8.0197

     14  H    Isotropic =    27.8182   Anisotropy =     5.6984

     15  H    Isotropic =    23.7891   Anisotropy =     8.4052

     16  H    Isotropic =    24.2642   Anisotropy =     4.6711

     17  H    Isotropic =    24.5042   Anisotropy =     6.2944

     18  H    Isotropic =    28.2884   Anisotropy =     5.8868

     19  H    Isotropic =    28.2127   Anisotropy =     6.2040

     20  H    Isotropic =    31.1843   Anisotropy =    11.3026

     21  H    Isotropic =    31.2195   Anisotropy =    10.9598

     22  H    Isotropic =    24.6549   Anisotropy =     8.4611

  Exact polarizability: 159.070   3.415 139.278   9.646  -3.188  72.760
 Approx polarizability: 177.515   2.632 167.234  13.562  -4.919  85.474

                      1                      2                      3
                      A                      A                      A
 Frequencies --     37.7669                42.1398               132.2338
 Red. masses --      2.8007                 2.5795                 3.7780
 Frc consts  --      0.0024                 0.0027                 0.0389
 IR Inten    --      4.4349                 1.1484                 0.2734

                      4                      5                      6
                      A                      A                      A
 Frequencies --    161.5209               213.9104               274.9690
 Red. masses --      2.7280                 1.7696                 1.5276
 Frc consts  --      0.0419                 0.0477                 0.0680
 IR Inten    --      7.5505                46.4374                27.5980

                      7                      8                      9
                      A                      A                      A
 Frequencies --    276.5375               321.3156               355.0973
 Red. masses --      1.5709                 2.8982                 1.9842
 Frc consts  --      0.0708                 0.1763                 0.1474
 IR Inten    --     40.0278                24.9660                41.4991

                     10                     11                     12
                      A                      A                      A
 Frequencies --    432.3947               462.3803               519.1948
 Red. masses --      2.7404                 3.5303                 4.2655
 Frc consts  --      0.3019                 0.4447                 0.6774
 IR Inten    --      2.3554                 4.2038                 1.6292

                     13                     14                     15
                      A                      A                      A
 Frequencies --    567.1437               644.6088               721.3517
 Red. masses --      3.7325                 4.5116                 2.2940
 Frc consts  --      0.7073                 1.1045                 0.7033
 IR Inten    --     14.5274                 6.3495                19.8335

                     16                     17                     18
                      A                      A                      A
 Frequencies --    744.7034               810.5600               871.0262
 Red. masses --      3.8099                 1.4992                 1.3641
 Frc consts  --      1.2449                 0.5803                 0.6098
 IR Inten    --     28.0639                35.4277                64.0186

                     19                     20                     21
                      A                      A                      A
 Frequencies --    876.1003               897.5718               919.5821
 Red. masses --      1.6979                 1.6779                 1.4150
 Frc consts  --      0.7678                 0.7964                 0.7050
 IR Inten    --    114.0187                48.5929                81.7668

                     22                     23                     24
                      A                      A                      A
 Frequencies --    930.4494               954.7178               991.3097
 Red. masses --      1.3484                 2.6485                 1.2867
 Frc consts  --      0.6878                 1.4223                 0.7450
 IR Inten    --      4.0928               148.3183                 1.3369

                     25                     26                     27
                      A                      A                      A
 Frequencies --   1007.4244              1013.9320              1070.5249
 Red. masses --      1.8957                 4.6953                 2.4768
 Frc consts  --      1.1336                 2.8440                 1.6724
 IR Inten    --     54.4216                 8.9570                11.3787

                     28                     29                     30
                      A                      A                      A
 Frequencies --   1094.2193              1107.5214              1164.2930
 Red. masses --      2.2308                 1.6055                 1.2151
 Frc consts  --      1.5737                 1.1603                 0.9705
 IR Inten    --     53.2807                 6.1445                 1.5567

                     31                     32                     33
                      A                      A                      A
 Frequencies --   1175.4108              1186.1413              1191.5052
 Red. masses --      1.3734                 1.3409                 1.1561
 Frc consts  --      1.1179                 1.1115                 0.9670
 IR Inten    --     16.5125                 1.2336                 0.3983

                     34                     35                     36
                      A                      A                      A
 Frequencies --   1264.2023              1303.8814              1347.7169
 Red. masses --      3.4965                 1.4691                 1.2642
 Frc consts  --      3.2924                 1.4716                 1.3529
 IR Inten    --      4.3080                 6.8574                 1.2116

                     37                     38                     39
                      A                      A                      A
 Frequencies --   1359.0998              1376.2066              1393.6210
 Red. masses --      3.4692                 1.2819                 1.2398
 Frc consts  --      3.7756                 1.4304                 1.4187
 IR Inten    --      0.5181                36.6055                 1.0214

                     40                     41                     42
                      A                      A                      A
 Frequencies --   1424.4949              1481.7884              1494.8923
 Red. masses --      1.4692                 2.6402                 1.0981
 Frc consts  --      1.7565                 3.4155                 1.4458
 IR Inten    --     42.7330                 9.5437                 2.6374

                     43                     44                     45
                      A                      A                      A
 Frequencies --   1507.7696              1530.3154              1636.7307
 Red. masses --      1.1159                 2.2257                 4.4339
 Frc consts  --      1.4947                 3.0710                 6.9983
 IR Inten    --      3.8565                10.2763                 3.2881

                     46                     47                     48
                      A                      A                      A
 Frequencies --   1653.6469              1658.8425              1662.2181
 Red. masses --      1.4050                 2.9594                 1.0963
 Frc consts  --      2.2636                 4.7981                 1.7847
 IR Inten    --     21.1752                25.9009                30.5297

                     49                     50                     51
                      A                      A                      A
 Frequencies --   2976.1574              3033.4236              3045.8155
 Red. masses --      1.0699                 1.0916                 1.0594
 Frc consts  --      5.5834                 5.9183                 5.7904
 IR Inten    --    108.0438                51.1684                69.6339

                     52                     53                     54
                      A                      A                      A
 Frequencies --   3090.8151              3156.8144              3169.7349
 Red. masses --      1.1063                 1.0896                 1.0871
 Frc consts  --      6.2271                 6.3978                 6.4355
 IR Inten    --     43.1371                31.9745                14.2041

                     55                     56                     57
                      A                      A                      A
 Frequencies --   3187.7828              3210.5881              3471.2128
 Red. masses --      1.0925                 1.0930                 1.0504
 Frc consts  --      6.5408                 6.6379                 7.4570
 IR Inten    --     34.9192                17.6595                 0.5422

                     58                     59                     60
                      A                      A                      A
 Frequencies --   3484.4966              3549.2649              3566.6350
 Red. masses --      1.0507                 1.0915                 1.0922
 Frc consts  --      7.5161                 8.1012                 8.1859
 IR Inten    --      1.3881                 0.0125                 0.0852

 - Thermochemistry -
 -------------------
 Temperature   298.150 Kelvin.  Pressure   1.00000 Atm.
 Atom     1 has atomic number  7 and mass  14.00307

 Molecular mass:   136.10005 amu.
 Principal axes and moments of inertia in atomic units:
                           1         2         3
     Eigenvalues --   667.481852394.356472890.94599
           X            0.99995   0.00999  -0.00041
           Y           -0.00999   0.99995  -0.00266
           Z            0.00039   0.00266   1.00000
 This molecule is an asymmetric top.
 Rotational symmetry number  1.
 Warning -- assumption of classical behavior for rotation
           may cause significant error
 Rotational temperatures (Kelvin)      0.12976     0.03617     0.02996
 Rotational constants (GHZ):           2.70381     0.75375     0.62427
 Zero-point vibrational energy     503674.1 (Joules/Mol)
                                  120.38099 (Kcal/Mol)
 Warning -- explicit consideration of  13 degrees of freedom as
           vibrations may cause significant error
 Vibrational temperatures:     54.34    60.63   190.25   232.39   307.77
          (Kelvin)            395.62   397.88   462.30   510.91   622.12
                              665.26   747.01   815.99   927.45  1037.86
                             1071.46  1166.21  1253.21  1260.51  1291.41
                             1323.07  1338.71  1373.63  1426.27  1449.46
                             1458.82  1540.25  1574.34  1593.48  1675.16
                             1691.15  1706.59  1714.31  1818.91  1875.99
                             1939.06  1955.44  1980.05  2005.11  2049.53
                             2131.96  2150.82  2169.34  2201.78  2354.89
                             2379.23  2386.70  2391.56  4282.03  4364.42
                             4382.25  4446.99  4541.95  4560.54  4586.51
                             4619.32  4994.30  5013.41  5106.60  5131.59

 Zero-point correction=                           0.191839 (Hartree/Particle)
 Thermal correction to Energy=                    0.201878
 Thermal correction to Enthalpy=                  0.202823
 Thermal correction to Gibbs Free Energy=         0.155478
 Sum of electronic and zero-point Energies=           -421.405536
 Sum of electronic and thermal Energies=              -421.395497
 Sum of electronic and thermal Enthalpies=            -421.394553
 Sum of electronic and thermal Free Energies=         -421.441898

                     E (Thermal)             CV                S
                      KCal/Mol        Cal/Mol-Kelvin    Cal/Mol-Kelvin
 Total                  126.681             37.490             99.645
 Electronic               0.000              0.000              0.000
 Translational            0.889              2.981             40.637
 Rotational               0.889              2.981             29.914
 Vibrational            124.903             31.528             29.094
 Vibration     1          0.594              1.982              5.373
 Vibration     2          0.595              1.980              5.156
 Vibration     3          0.612              1.921              2.913
 Vibration     4          0.622              1.890              2.532
 Vibration     5          0.644              1.820              2.010
 Vibration     6          0.677              1.720              1.565
 Vibration     7          0.678              1.717              1.555
 Vibration     8          0.707              1.633              1.303
 Vibration     9          0.731              1.565              1.143
 Vibration    10          0.793              1.400              0.851
 Vibration    11          0.820              1.333              0.759
 Vibration    12          0.874              1.207              0.612
 Vibration    13          0.923              1.102              0.510

 Optimization completed.
    -- Stationary point found.
 Normal termination of Gaussian 16 at Wed Jul 17 17:14:23 2024.
 Gaussian 16:  ES64L-G16RevA.03 25-Dec-2016

 ----------------------------------------------------------------------
 # TD(NStates=10, Root=1) B3LYP/6-31G** SCRF=(Solvent=water) volume pop
 =NPA density=current Geom=AllCheck Guess=Read
 ----------------------------------------------------------------------

 Structure from the checkpoint file:  "FDLQZKYLHJJBHD-UHFFFAOYSA-N_conf_1_2.chk"
 ----------------------------------
 FDLQZKYLHJJBHD-UHFFFAOYSA-N_conf_1
 ----------------------------------
 Charge =  0 Multiplicity = 1

                         Standard orientation:
 ---------------------------------------------------------------------
 Center     Atomic      Atomic             Coordinates (Angstroms)
 Number     Number       Type             X           Y           Z
 ---------------------------------------------------------------------
      1          7           0       -3.579882   -0.443157    0.216824
      2          6           0       -2.352625   -1.070389   -0.294059
      3          6           0       -1.136258   -0.180109   -0.114774
      4          6           0       -1.225518    1.209700   -0.272151
      5          6           0       -0.090799    2.009451   -0.130470
      6          6           0        1.146144    1.433155    0.164986
      7          6           0        1.261586    0.045861    0.324570
      8          6           0        2.611021   -0.596447    0.595852
      9          7           0        3.393710   -0.954393   -0.604791
     10          6           0        0.109894   -0.741259    0.188322
     11          1           0       -4.368976   -1.054733    0.018509
     12          1           0       -3.524587   -0.384326    1.232172
     13          1           0       -2.134979   -2.053980    0.152671
     14          1           0       -2.505675   -1.253138   -1.366655
     15          1           0       -2.191151    1.654255   -0.489351
     16          1           0       -0.171747    3.087034   -0.245197
     17          1           0        2.025138    2.063054    0.281249
     18          1           0        2.470909   -1.510420    1.183789
     19          1           0        3.225090    0.080710    1.200060
     20          1           0        3.524036   -0.114360   -1.167565
     21          1           0        2.828730   -1.572566   -1.186214
     22          1           0        0.185751   -1.818460    0.328650
 ---------------------------------------------------------------------

 SCF Done:  E(RB3LYP) =  -421.597375493     A.U. after    1 cycles

 Excitation energies and oscillator strengths:

 Excited State   1:      Singlet-A      5.2120 eV  237.88 nm  f=0.0083  <S**2>=0.000
      35 -> 38        -0.26953
      36 -> 38         0.31191
      37 -> 39         0.55554
 This state for optimization and/or second-order correction.
 Total Energy, E(TD-HF/TD-DFT) =  -421.405836804
 Copying the excited state density for this state as the 1-particle RhoCI density.

 Excited State   2:      Singlet-A      5.5039 eV  225.27 nm  f=0.0968  <S**2>=0.000
      34 -> 38         0.18269
      35 -> 38        -0.11936
      36 -> 39        -0.18823
      37 -> 38         0.63681

 Excited State   3:      Singlet-A      5.5992 eV  221.43 nm  f=0.1062  <S**2>=0.000
      34 -> 38         0.11395
      34 -> 39        -0.11614
      35 -> 38         0.21080
      35 -> 39         0.12802
      36 -> 38         0.57038
      36 -> 39         0.12741
      37 -> 38         0.11407
      37 -> 39        -0.23364

 Excited State   4:      Singlet-A      5.7150 eV  216.95 nm  f=0.0041  <S**2>=0.000
      35 -> 38        -0.12997
      35 -> 39         0.25689
      36 -> 38        -0.14940
      36 -> 39         0.61018
      37 -> 38         0.11347

 Excited State   5:      Singlet-A      5.8626 eV  211.48 nm  f=0.0413  <S**2>=0.000
      34 -> 38         0.14712
      34 -> 39         0.47075
      35 -> 38         0.37382
      35 -> 39        -0.16952
      37 -> 39         0.27376

 Excited State   6:      Singlet-A      6.1084 eV  202.97 nm  f=0.0338  <S**2>=0.000
      34 -> 38         0.47662
      35 -> 38        -0.23275
      35 -> 39        -0.41028
      36 -> 39         0.13573
      37 -> 38        -0.11915

 Excited State   7:      Singlet-A      6.5902 eV  188.14 nm  f=0.9727  <S**2>=0.000
      34 -> 38        -0.31109
      34 -> 39         0.36517
      35 -> 38        -0.32350
      35 -> 39        -0.23456
      36 -> 38         0.19015
      37 -> 39        -0.22634

 Excited State   8:      Singlet-A      6.6317 eV  186.96 nm  f=0.6745  <S**2>=0.000
      34 -> 38         0.29910
      34 -> 39         0.31422
      35 -> 38        -0.21956
      35 -> 39         0.39626
      36 -> 39        -0.21869
      37 -> 38        -0.20371

 Excited State   9:      Singlet-A      7.5809 eV  163.55 nm  f=0.0003  <S**2>=0.000
      32 -> 38         0.12926
      33 -> 38         0.65809
      33 -> 39        -0.19698

 Excited State  10:      Singlet-A      7.6519 eV  162.03 nm  f=0.0083  <S**2>=0.000
      33 -> 39        -0.31927
      35 -> 40         0.17431
      35 -> 41         0.16123
      36 -> 40         0.32411
      36 -> 41         0.29366
      37 -> 40        -0.26425
      37 -> 41        -0.24574

 The electronic state is 1-A.
 Alpha  occ. eigenvalues --  -14.31444 -14.31402 -10.21063 -10.20898 -10.19270
 Alpha  occ. eigenvalues --  -10.19084 -10.18742 -10.18489 -10.18424 -10.18212
 Alpha  occ. eigenvalues --   -0.88477  -0.87939  -0.84213  -0.75504  -0.74656
 Alpha  occ. eigenvalues --   -0.65918  -0.65808  -0.59436  -0.56337  -0.50476
 Alpha  occ. eigenvalues --   -0.49155  -0.47963  -0.46013  -0.44427  -0.42271
 Alpha  occ. eigenvalues --   -0.41782  -0.40706  -0.40353  -0.38629  -0.36102
 Alpha  occ. eigenvalues --   -0.35160  -0.34000  -0.32945  -0.25584  -0.24807
 Alpha  occ. eigenvalues --   -0.23792  -0.22893
 Alpha virt. eigenvalues --   -0.00298  -0.00121   0.09275   0.09438   0.11593
 Alpha virt. eigenvalues --    0.12877   0.13884   0.14569   0.15055   0.16357
 Alpha virt. eigenvalues --    0.17588   0.18313   0.18507   0.20507   0.20901

 Mulliken charges:
               1
     1  N   -0.613661
     2  C   -0.111002
     3  C    0.087526
     4  C   -0.116653
     5  C   -0.137484
     6  C   -0.141690
     7  C    0.095514
     8  C   -0.132793
     9  N   -0.568121
    10  C   -0.202342
    11  H    0.258776
    12  H    0.258118
    13  H    0.103989
    14  H    0.126124
    15  H    0.088845
    16  H    0.081587
    17  H    0.085164
    18  H    0.115249
    19  H    0.116202
    20  H    0.265891
    21  H    0.267306
    22  H    0.073454
 Sum of Mulliken charges =  -0.00000

 Dipole moment (field-independent basis, Debye):
    X=             -0.7168    Y=             -2.0634    Z=             -0.2129  Tot=              2.1948
 Quadrupole moment (field-independent basis, Debye-Ang):
   XX=            -57.0546   YY=            -57.1742   ZZ=            -59.0067
   XY=              9.3513   XZ=             -4.1398   YZ=              0.1886

 Summary of Natural Population Analysis:

                                       Natural Population
                Natural  -----------------------------------------------
    Atom  No    Charge         Core      Valence    Rydberg      Total
 -----------------------------------------------------------------------
      N    1   -0.89503      1.99965     5.88101    0.01437     7.89503
      C    2   -0.28008      1.99929     4.26623    0.01456     6.28008
      C    3   -0.05952      1.99905     4.04196    0.01851     6.05952
      C    4   -0.21746      1.99907     4.20200    0.01639     6.21746
      C    5   -0.29712      1.99915     4.27863    0.01934     6.29712
      C    6   -0.24353      1.99906     4.22755    0.01691     6.24353
      C    7   -0.05382      1.99904     4.03758    0.01720     6.05382
      C    8   -0.29609      1.99929     4.27918    0.01763     6.29609
      N    9   -0.82071      1.99968     5.80702    0.01401     7.82071
      C   10   -0.28584      1.99901     4.26931    0.01752     6.28584
      H   11    0.39459      0.00000     0.60209    0.00332     0.60541
      H   12    0.39132      0.00000     0.60515    0.00353     0.60868
      H   13    0.22511      0.00000     0.77218    0.00272     0.77489
      H   14    0.24417      0.00000     0.75267    0.00316     0.75583
      H   15    0.24072      0.00000     0.75703    0.00225     0.75928
      H   16    0.23315      0.00000     0.76537    0.00148     0.76685
      H   17    0.23221      0.00000     0.76605    0.00174     0.76779
      H   18    0.23690      0.00000     0.76049    0.00260     0.76310
      H   19    0.23790      0.00000     0.75973    0.00237     0.76210
      H   20    0.39293      0.00000     0.60335    0.00372     0.60707
      H   21    0.39339      0.00000     0.60320    0.00341     0.60661
      H   22    0.22683      0.00000     0.77118    0.00199     0.77317
 =======================================================================
   * Total *    0.00000     19.99229    53.80896    0.19875    74.00000

 Normal termination of Gaussian 16 at Wed Jul 17 17:21:48 2024.
