 Gaussian 16, Revision A.03,

 -------------------------------------------------------
 # opt=CalcFc B3LYP/6-31G** SCRF=(Solvent=water) scf=xqc
 -------------------------------------------------------

 ----------------------------------
 KWYHDKDOAIKMQN-UHFFFAOYSA-N_conf_2
 ----------------------------------
 Symbolic Z-matrix:
 Charge =  0 Multiplicity = 1

 SCF Done:  E(RB3LYP) =  -347.767280823     A.U. after   11 cycles
 SCF Done:  E(RB3LYP) =  -347.769751250     A.U. after    9 cycles
 SCF Done:  E(RB3LYP) =  -347.769763485     A.U. after    9 cycles
 SCF Done:  E(RB3LYP) =  -347.769781369     A.U. after    8 cycles
 SCF Done:  E(RB3LYP) =  -347.769781534     A.U. after    6 cycles
 Optimization completed.
    -- Stationary point found.
 Normal termination of Gaussian 16 at Thu Jul 11 20:05:47 2024.

 ----------------------------------------------------------------------
 # freq B3LYP/6-31G** SCRF=(Solvent=water) volume NMR pop=NPA density=c
 urrent Geom=AllCheck Guess=Read
 ----------------------------------------------------------------------

 Structure from the checkpoint file:  "KWYHDKDOAIKMQN-UHFFFAOYSA-N_conf_2_1.chk"
 ----------------------------------
 KWYHDKDOAIKMQN-UHFFFAOYSA-N_conf_2
 ----------------------------------
 Charge =  0 Multiplicity = 1

 SCF Done:  E(RB3LYP) =  -347.769781534     A.U. after    1 cycles

      1  C    Isotropic =   145.7474   Anisotropy =    67.7666

      2  N    Isotropic =   227.4607   Anisotropy =    32.5947

      3  C    Isotropic =   151.4832   Anisotropy =    57.2032

      4  C    Isotropic =   136.2035   Anisotropy =    55.8729

      5  C    Isotropic =   136.2035   Anisotropy =    55.8729

      6  N    Isotropic =   227.4607   Anisotropy =    32.5947

      7  C    Isotropic =   145.7474   Anisotropy =    67.7666

      8  C    Isotropic =   151.4832   Anisotropy =    57.2032

      9  H    Isotropic =    29.5166   Anisotropy =     9.5008

     10  H    Isotropic =    29.8972   Anisotropy =     8.7965

     11  H    Isotropic =    29.4771   Anisotropy =    10.1073

     12  H    Isotropic =    28.9890   Anisotropy =     7.4983

     13  H    Isotropic =    30.2059   Anisotropy =     8.8919

     14  H    Isotropic =    29.6511   Anisotropy =     9.5610

     15  H    Isotropic =    29.8935   Anisotropy =     6.4393

     16  H    Isotropic =    28.9679   Anisotropy =     5.4076

     17  H    Isotropic =    29.8935   Anisotropy =     6.4393

     18  H    Isotropic =    28.9679   Anisotropy =     5.4076

     19  H    Isotropic =    29.8972   Anisotropy =     8.7965

     20  H    Isotropic =    29.5166   Anisotropy =     9.5008

     21  H    Isotropic =    29.4771   Anisotropy =    10.1073

     22  H    Isotropic =    28.9890   Anisotropy =     7.4983

     23  H    Isotropic =    29.6511   Anisotropy =     9.5610

     24  H    Isotropic =    30.2059   Anisotropy =     8.8919

  Exact polarizability: 110.972  -0.458 102.284  -0.000  -0.000  98.204
 Approx polarizability: 109.841   0.284 109.037   0.000  -0.000 107.089

                      1                      2                      3
                      A                      A                      A
 Frequencies --     59.0353                70.1472               110.6053
 Red. masses --      2.7536                 2.6459                 2.8378
 Frc consts  --      0.0057                 0.0077                 0.0205
 IR Inten    --      0.0618                 1.4989                 0.8185

                      4                      5                      6
                      A                      A                      A
 Frequencies --    217.6589               259.7151               263.1228
 Red. masses --      1.6233                 1.1427                 1.0758
 Frc consts  --      0.0453                 0.0454                 0.0439
 IR Inten    --      0.0026                 0.7212                 1.2307

                      7                      8                      9
                      A                      A                      A
 Frequencies --    264.1730               304.6806               318.6057
 Red. masses --      1.0929                 1.4913                 2.3651
 Frc consts  --      0.0449                 0.0816                 0.1415
 IR Inten    --      0.4626                 2.0969                 3.7722

                     10                     11                     12
                      A                      A                      A
 Frequencies --    344.4413               380.8674               381.2838
 Red. masses --      2.6567                 1.8123                 1.9639
 Frc consts  --      0.1857                 0.1549                 0.1682
 IR Inten    --      4.7134                 7.4162                 8.1728

                     13                     14                     15
                      A                      A                      A
 Frequencies --    441.8049               443.3069               618.0628
 Red. masses --      2.0386                 2.0998                 2.9124
 Frc consts  --      0.2344                 0.2431                 0.6555
 IR Inten    --      0.2799                 0.1301                 5.6420

                     16                     17                     18
                      A                      A                      A
 Frequencies --    788.9737               800.5244               946.9000
 Red. masses --      3.5380                 2.2311                 2.0049
 Frc consts  --      1.2976                 0.8424                 1.0592
 IR Inten    --     39.9881                17.0268                59.3137

                     19                     20                     21
                      A                      A                      A
 Frequencies --    962.9700              1052.3054              1062.5413
 Red. masses --      2.3721                 2.0939                 1.7415
 Frc consts  --      1.2960                 1.3662                 1.1584
 IR Inten    --      0.0352                64.1452                 0.3083

                     22                     23                     24
                      A                      A                      A
 Frequencies --   1066.8801              1079.7805              1102.5281
 Red. masses --      1.5637                 1.6506                 1.8593
 Frc consts  --      1.0487                 1.1338                 1.3316
 IR Inten    --     24.1909                 0.3232                24.6368

                     25                     26                     27
                      A                      A                      A
 Frequencies --   1123.4539              1128.8084              1169.1447
 Red. masses --      1.2544                 1.3579                 1.4363
 Frc consts  --      0.9328                 1.0194                 1.1567
 IR Inten    --     16.0233                 5.0870                23.3576

                     28                     29                     30
                      A                      A                      A
 Frequencies --   1178.0680              1208.2935              1260.6695
 Red. masses --      1.4945                 1.9657                 2.8188
 Frc consts  --      1.2221                 1.6909                 2.6395
 IR Inten    --     43.3539                20.4298                 1.2473

                     31                     32                     33
                      A                      A                      A
 Frequencies --   1294.7007              1300.7531              1322.4452
 Red. masses --      1.8463                 2.1984                 1.4109
 Frc consts  --      1.8234                 2.1915                 1.4538
 IR Inten    --      2.7775                 7.3456                14.4766

                     34                     35                     36
                      A                      A                      A
 Frequencies --   1333.6950              1408.4044              1431.3907
 Red. masses --      1.6310                 1.3286                 1.4396
 Frc consts  --      1.7093                 1.5527                 1.7379
 IR Inten    --     52.1717                54.5621                 5.1358

                     37                     38                     39
                      A                      A                      A
 Frequencies --   1447.8514              1448.2020              1474.4747
 Red. masses --      1.1576                 1.1621                 1.1906
 Frc consts  --      1.4297                 1.4360                 1.5251
 IR Inten    --      0.5386                13.4746                 0.1298

                     40                     41                     42
                      A                      A                      A
 Frequencies --   1482.0233              1489.6612              1492.3384
 Red. masses --      1.1355                 1.0473                 1.0899
 Frc consts  --      1.4694                 1.3693                 1.4302
 IR Inten    --      4.6707                 1.0549                10.5417

                     43                     44                     45
                      A                      A                      A
 Frequencies --   1493.9778              1500.8897              1504.0922
 Red. masses --      1.0643                 1.0538                 1.0525
 Frc consts  --      1.3995                 1.3987                 1.4029
 IR Inten    --     13.4811                 0.1191                10.7711

                     46                     47                     48
                      A                      A                      A
 Frequencies --   1507.0366              1513.4963              1516.5594
 Red. masses --      1.0510                 1.0639                 1.0518
 Frc consts  --      1.4064                 1.4359                 1.4253
 IR Inten    --     32.4060                13.2838                10.9037

                     49                     50                     51
                      A                      A                      A
 Frequencies --   1522.0394              1522.2382              2897.1363
 Red. masses --      1.1037                 1.0616                 1.0721
 Frc consts  --      1.5065                 1.4493                 5.3017
 IR Inten    --      0.3717                 6.4609                 7.1646

                     52                     53                     54
                      A                      A                      A
 Frequencies --   2905.8595              2922.6754              2922.7124
 Red. masses --      1.0753                 1.0603                 1.0603
 Frc consts  --      5.3497                 5.3361                 5.3364
 IR Inten    --    195.3380                 2.7614               131.3655

                     55                     56                     57
                      A                      A                      A
 Frequencies --   2930.4393              2932.7270              3055.9467
 Red. masses --      1.0622                 1.0632                 1.0840
 Frc consts  --      5.3745                 5.3879                 5.9646
 IR Inten    --    352.7562               204.7190                13.4589

                     58                     59                     60
                      A                      A                      A
 Frequencies --   3065.3737              3065.8976              3071.9723
 Red. masses --      1.0711                 1.0704                 1.0866
 Frc consts  --      5.9300                 5.9281                 6.0418
 IR Inten    --     52.1755                30.3264               114.5605

                     61                     62                     63
                      A                      A                      A
 Frequencies --   3078.9619              3079.7214              3111.7601
 Red. masses --      1.0726                 1.0725                 1.1040
 Frc consts  --      5.9908                 5.9932                 6.2986
 IR Inten    --     11.8439                95.4000                69.0493

                     64                     65                     66
                      A                      A                      A
 Frequencies --   3111.7750              3130.9522              3131.1047
 Red. masses --      1.1040                 1.1012                 1.1011
 Frc consts  --      6.2986                 6.3600                 6.3600
 IR Inten    --     40.6511                79.0934                 3.1585

 - Thermochemistry -
 -------------------
 Temperature   298.150 Kelvin.  Pressure   1.00000 Atm.
 Atom     1 has atomic number  6 and mass  12.00000

 Molecular mass:   116.13135 amu.
 Principal axes and moments of inertia in atomic units:
                           1         2         3
     Eigenvalues --   497.320361644.060351793.14962
           X            1.00000   0.00097   0.00000
           Y           -0.00097   1.00000   0.00000
           Z           -0.00000  -0.00000   1.00000
 This molecule is an asymmetric top.
 Rotational symmetry number  1.
 Warning -- assumption of classical behavior for rotation
           may cause significant error
 Rotational temperatures (Kelvin)      0.17416     0.05268     0.04830
 Rotational constants (GHZ):           3.62893     1.09773     1.00646
 Zero-point vibrational energy     585157.2 (Joules/Mol)
                                  139.85592 (Kcal/Mol)
 Warning -- explicit consideration of  15 degrees of freedom as
           vibrations may cause significant error
 Vibrational temperatures:     84.94   100.93   159.14   313.16   373.67
          (Kelvin)            378.58   380.09   438.37   458.40   495.57
                              547.98   548.58   635.66   637.82   889.25
                             1135.16  1151.78  1362.38  1385.50  1514.03
                             1528.76  1535.00  1553.56  1586.29  1616.40
                             1624.10  1682.14  1694.98  1738.46  1813.82
                             1862.79  1871.49  1902.70  1918.89  2026.38
                             2059.45  2083.14  2083.64  2121.44  2132.30
                             2143.29  2147.14  2149.50  2159.45  2164.05
                             2168.29  2177.58  2181.99  2189.88  2190.16
                             4168.33  4180.88  4205.08  4205.13  4216.25
                             4219.54  4396.83  4410.39  4411.14  4419.88
                             4429.94  4431.03  4477.13  4477.15  4504.74
                             4504.96

 Zero-point correction=                           0.222875 (Hartree/Particle)
 Thermal correction to Energy=                    0.233125
 Thermal correction to Enthalpy=                  0.234069
 Thermal correction to Gibbs Free Energy=         0.187811
 Sum of electronic and zero-point Energies=           -347.546907
 Sum of electronic and thermal Energies=              -347.536657
 Sum of electronic and thermal Enthalpies=            -347.535713
 Sum of electronic and thermal Free Energies=         -347.581971

                     E (Thermal)             CV                S
                      KCal/Mol        Cal/Mol-Kelvin    Cal/Mol-Kelvin
 Total                  146.288             37.416             97.358
 Electronic               0.000              0.000              0.000
 Translational            0.889              2.981             40.164
 Rotational               0.889              2.981             28.774
 Vibrational            144.510             31.455             28.420
 Vibration     1          0.596              1.974              4.489
 Vibration     2          0.598              1.968              4.149
 Vibration     3          0.606              1.941              3.258
 Vibration     4          0.646              1.814              1.978
 Vibration     5          0.668              1.746              1.664
 Vibration     6          0.670              1.740              1.641
 Vibration     7          0.671              1.739              1.634
 Vibration     8          0.696              1.665              1.391
 Vibration     9          0.705              1.638              1.317
 Vibration    10          0.723              1.587              1.192
 Vibration    11          0.751              1.511              1.036
 Vibration    12          0.751              1.510              1.034
 Vibration    13          0.802              1.379              0.821
 Vibration    14          0.803              1.376              0.816
 Vibration    15          0.978              0.994              0.420

 Optimization completed.
    -- Stationary point found.
 Normal termination of Gaussian 16 at Thu Jul 11 20:23:03 2024.
 Gaussian 16:  EM64L-G16RevA.03 25-Dec-2016

 ----------------------------------------------------------------------
 # TD(NStates=10, Root=1) B3LYP/6-31G** SCRF=(Solvent=water) volume pop
 =NPA density=current Geom=AllCheck Guess=Read
 ----------------------------------------------------------------------

 Structure from the checkpoint file:  "KWYHDKDOAIKMQN-UHFFFAOYSA-N_conf_2_2.chk"
 ----------------------------------
 KWYHDKDOAIKMQN-UHFFFAOYSA-N_conf_2
 ----------------------------------
 Charge =  0 Multiplicity = 1

                         Standard orientation:
 ---------------------------------------------------------------------
 Center     Atomic      Atomic             Coordinates (Angstroms)
 Number     Number       Type             X           Y           Z
 ---------------------------------------------------------------------
      1          6           0       -2.781413    0.727808   -0.182957
      2          7           0       -1.493142    0.048289   -0.265634
      3          6           0       -1.670444   -1.374277   -0.536360
      4          6           0       -0.704142    0.303068    0.939483
      5          6           0        0.704142   -0.303068    0.939483
      6          7           0        1.493142   -0.048289   -0.265634
      7          6           0        2.781413   -0.727808   -0.182957
      8          6           0        1.670444    1.374277   -0.536360
      9          1           0       -2.627423    1.801615   -0.034635
     10          1           0       -3.416716    0.359698    0.646043
     11          1           0       -3.335391    0.588477   -1.116804
     12          1           0       -0.702655   -1.845454   -0.722550
     13          1           0       -2.170785   -1.915859    0.289922
     14          1           0       -2.282666   -1.498379   -1.435142
     15          1           0       -1.212505   -0.076812    1.849691
     16          1           0       -0.637668    1.390144    1.061920
     17          1           0        1.212505    0.076812    1.849691
     18          1           0        0.637668   -1.390145    1.061919
     19          1           0        3.416716   -0.359698    0.646043
     20          1           0        2.627423   -1.801615   -0.034635
     21          1           0        3.335391   -0.588476   -1.116804
     22          1           0        0.702654    1.845453   -0.722550
     23          1           0        2.282666    1.498379   -1.435141
     24          1           0        2.170785    1.915859    0.289922
 ---------------------------------------------------------------------

 SCF Done:  E(RB3LYP) =  -347.769781534     A.U. after    1 cycles

 Excitation energies and oscillator strengths:

 Excited State   1:      Singlet-A      6.6636 eV  186.06 nm  f=0.0140  <S**2>=0.000
      32 -> 35         0.12529
      33 -> 34         0.69439
 This state for optimization and/or second-order correction.
 Total Energy, E(TD-HF/TD-DFT) =  -347.524899688
 Copying the excited state density for this state as the 1-particle RhoCI density.

 Excited State   2:      Singlet-A      6.8537 eV  180.90 nm  f=0.0602  <S**2>=0.000
      32 -> 34         0.67789
      33 -> 35         0.19448

 Excited State   3:      Singlet-A      7.5485 eV  164.25 nm  f=0.0062  <S**2>=0.000
      32 -> 34        -0.19188
      33 -> 35         0.66919

 Excited State   4:      Singlet-A      7.7369 eV  160.25 nm  f=0.0268  <S**2>=0.000
      32 -> 35         0.68075
      33 -> 34        -0.12131
      33 -> 37        -0.10932

 Excited State   5:      Singlet-A      7.8715 eV  157.51 nm  f=0.0747  <S**2>=0.000
      33 -> 36         0.69549

 Excited State   6:      Singlet-A      8.0555 eV  153.91 nm  f=0.0529  <S**2>=0.000
      32 -> 36         0.68345
      33 -> 37        -0.16400

 Excited State   7:      Singlet-A      8.4486 eV  146.75 nm  f=0.0647  <S**2>=0.000
      32 -> 36         0.12177
      32 -> 40        -0.19566
      32 -> 41         0.10767
      33 -> 37         0.56511
      33 -> 38         0.30693

 Excited State   8:      Singlet-A      8.5676 eV  144.71 nm  f=0.0005  <S**2>=0.000
      32 -> 37         0.50725
      32 -> 38         0.22610
      33 -> 40        -0.36635
      33 -> 41         0.18204

 Excited State   9:      Singlet-A      8.6274 eV  143.71 nm  f=0.0278  <S**2>=0.000
      32 -> 35        -0.11218
      33 -> 37        -0.29013
      33 -> 38         0.57099
      33 -> 39         0.22245

 Excited State  10:      Singlet-A      8.7049 eV  142.43 nm  f=0.0121  <S**2>=0.000
      32 -> 41        -0.10013
      33 -> 38        -0.23588
      33 -> 39         0.63782

 The electronic state is 1-A.
 Alpha  occ. eigenvalues --  -14.32243 -14.32243 -10.20333 -10.20312 -10.19711
 Alpha  occ. eigenvalues --  -10.19711 -10.19492 -10.19492  -0.92320  -0.90422
 Alpha  occ. eigenvalues --   -0.74201  -0.70034  -0.69685  -0.65724  -0.60097
 Alpha  occ. eigenvalues --   -0.55403  -0.48154  -0.48127  -0.46259  -0.44780
 Alpha  occ. eigenvalues --   -0.44183  -0.42404  -0.39239  -0.38981  -0.38254
 Alpha  occ. eigenvalues --   -0.37909  -0.36234  -0.35817  -0.35426  -0.33696
 Alpha  occ. eigenvalues --   -0.33000  -0.21456  -0.20671
 Alpha virt. eigenvalues --    0.07566   0.10391   0.12003   0.14200   0.14474
 Alpha virt. eigenvalues --    0.15088   0.15194   0.15944   0.16712   0.17056
 Alpha virt. eigenvalues --    0.17121   0.18874   0.19397   0.19621   0.19680

 Mulliken charges:
               1
     1  C   -0.157093
     2  N   -0.292713
     3  C   -0.123736
     4  C   -0.002636
     5  C   -0.002636
     6  N   -0.292712
     7  C   -0.157093
     8  C   -0.123736
     9  H    0.068631
    10  H    0.103328
    11  H    0.105977
    12  H    0.063889
    13  H    0.087054
    14  H    0.068869
    15  H    0.054557
    16  H    0.023873
    17  H    0.054557
    18  H    0.023873
    19  H    0.103328
    20  H    0.068631
    21  H    0.105977
    22  H    0.063889
    23  H    0.068869
    24  H    0.087054
 Sum of Mulliken charges =  -0.00000

 Dipole moment (field-independent basis, Debye):
    X=              0.0000    Y=              0.0000    Z=              0.2338  Tot=              0.2338
 Quadrupole moment (field-independent basis, Debye-Ang):
   XX=            -49.6003   YY=            -56.5242   ZZ=            -56.2400
   XY=              0.0829   XZ=             -0.0000   YZ=             -0.0000

 Summary of Natural Population Analysis:

                                       Natural Population
                Natural  -----------------------------------------------
    Atom  No    Charge         Core      Valence    Rydberg      Total
 -----------------------------------------------------------------------
      C    1   -0.52885      1.99946     4.51043    0.01896     6.52885
      N    2   -0.27552      1.99939     5.26304    0.01308     7.27552
      C    3   -0.52169      1.99944     4.50435    0.01790     6.52169
      C    4   -0.31315      1.99931     4.29369    0.02015     6.31315
      C    5   -0.31315      1.99931     4.29369    0.02015     6.31315
      N    6   -0.27552      1.99939     5.26304    0.01308     7.27552
      C    7   -0.52885      1.99946     4.51043    0.01896     6.52885
      C    8   -0.52169      1.99944     4.50435    0.01790     6.52169
      H    9    0.19673      0.00000     0.78355    0.01972     0.80327
      H   10    0.22157      0.00000     0.76413    0.01431     0.77843
      H   11    0.23128      0.00000     0.75945    0.00927     0.76872
      H   12    0.19592      0.00000     0.78234    0.02174     0.80408
      H   13    0.21345      0.00000     0.76962    0.01694     0.78655
      H   14    0.20275      0.00000     0.78113    0.01611     0.79725
      H   15    0.19778      0.00000     0.77710    0.02512     0.80222
      H   16    0.17972      0.00000     0.78583    0.03445     0.82028
      H   17    0.19778      0.00000     0.77710    0.02512     0.80222
      H   18    0.17972      0.00000     0.78583    0.03445     0.82028
      H   19    0.22157      0.00000     0.76413    0.01431     0.77843
      H   20    0.19673      0.00000     0.78355    0.01972     0.80327
      H   21    0.23128      0.00000     0.75945    0.00927     0.76872
      H   22    0.19592      0.00000     0.78234    0.02174     0.80408
      H   23    0.20275      0.00000     0.78113    0.01611     0.79725
      H   24    0.21345      0.00000     0.76962    0.01694     0.78655
 =======================================================================
   * Total *   -0.00000     15.99522    49.54928    0.45550    66.00000

 1\1\GINC-CN34\SP\RB3LYP TD-FC\6-31G(d,p)\C6H16N2\QDUEZ\11-Jul-2024\0\\
 # TD(NStates=10, Root=1) B3LYP/6-31G** SCRF=(Solvent=water) volume pop
 =NPA density=current Geom=AllCheck Guess=Read\\KWYHDKDOAIKMQN-UHFFFAOY
 SA-N_conf_2\\0,1\C,0,-2.2555430993,0.554033262,1.7093064264\N,0,-1.361
 3368955,0.3858774599,0.5689801478\C,0,-2.1167296144,0.2775871031,-0.67
 44330988\C,0,-0.4630566174,-0.7475719684,0.7883563588\C,0,0.5755247125
 ,-0.9820605088,-0.314832691\N,0,1.3229401583,0.2046213557,-0.730641887
 \C,0,2.2274966071,-0.1227068583,-1.8273911706\C,0,2.0444413625,0.83412

 Normal termination of Gaussian 16 at Thu Jul 11 20:42:30 2024.
