 Gaussian 16, Revision A.03,

 -------------------------------------------------------
 # opt=CalcFc B3LYP/6-31G** SCRF=(Solvent=water) scf=xqc
 -------------------------------------------------------

 ----------------------------------
 KWYHDKDOAIKMQN-UHFFFAOYSA-N_conf_0
 ----------------------------------
 Symbolic Z-matrix:
 Charge =  0 Multiplicity = 1

 SCF Done:  E(RB3LYP) =  -347.767637310     A.U. after   11 cycles
 SCF Done:  E(RB3LYP) =  -347.769522397     A.U. after    9 cycles
 SCF Done:  E(RB3LYP) =  -347.769604597     A.U. after    8 cycles
 SCF Done:  E(RB3LYP) =  -347.769607817     A.U. after    7 cycles
 Optimization completed.
    -- Stationary point found.
 Normal termination of Gaussian 16 at Thu Jul 11 20:05:18 2024.

 ----------------------------------------------------------------------
 # freq B3LYP/6-31G** SCRF=(Solvent=water) volume NMR pop=NPA density=c
 urrent Geom=AllCheck Guess=Read
 ----------------------------------------------------------------------

 Structure from the checkpoint file:  "KWYHDKDOAIKMQN-UHFFFAOYSA-N_conf_0_1.chk"
 ----------------------------------
 KWYHDKDOAIKMQN-UHFFFAOYSA-N_conf_0
 ----------------------------------
 Charge =  0 Multiplicity = 1

 SCF Done:  E(RB3LYP) =  -347.769607817     A.U. after    1 cycles

      1  C    Isotropic =   144.9312   Anisotropy =    68.2521

      2  N    Isotropic =   226.6002   Anisotropy =    36.1732

      3  C    Isotropic =   149.8165   Anisotropy =    59.9842

      4  C    Isotropic =   134.5252   Anisotropy =    58.8806

      5  C    Isotropic =   134.5252   Anisotropy =    58.8805

      6  N    Isotropic =   226.6002   Anisotropy =    36.1731

      7  C    Isotropic =   144.9312   Anisotropy =    68.2521

      8  C    Isotropic =   149.8165   Anisotropy =    59.9842

      9  H    Isotropic =    29.5217   Anisotropy =    10.0803

     10  H    Isotropic =    29.6804   Anisotropy =     8.5141

     11  H    Isotropic =    29.5062   Anisotropy =     9.3516

     12  H    Isotropic =    30.1094   Anisotropy =     8.3389

     13  H    Isotropic =    29.2607   Anisotropy =     8.2342

     14  H    Isotropic =    29.6504   Anisotropy =     9.7206

     15  H    Isotropic =    29.1902   Anisotropy =     7.5547

     16  H    Isotropic =    29.7920   Anisotropy =     3.8205

     17  H    Isotropic =    29.7920   Anisotropy =     3.8206

     18  H    Isotropic =    29.1902   Anisotropy =     7.5547

     19  H    Isotropic =    29.5217   Anisotropy =    10.0803

     20  H    Isotropic =    29.5062   Anisotropy =     9.3516

     21  H    Isotropic =    29.6804   Anisotropy =     8.5141

     22  H    Isotropic =    29.2607   Anisotropy =     8.2342

     23  H    Isotropic =    29.6504   Anisotropy =     9.7206

     24  H    Isotropic =    30.1094   Anisotropy =     8.3389

  Exact polarizability: 114.364   0.038 102.545   0.116  -0.404  92.151
 Approx polarizability: 111.902  -0.577 108.450  -0.913  -0.603 103.101

                      1                      2                      3
                      A                      A                      A
 Frequencies --     19.9308                81.5651               118.9219
 Red. masses --      2.4978                 2.5918                 1.8443
 Frc consts  --      0.0006                 0.0102                 0.0154
 IR Inten    --      1.1557                 0.6241                 0.0000

                      4                      5                      6
                      A                      A                      A
 Frequencies --    144.0156               245.5608               249.0524
 Red. masses --      2.6006                 1.0684                 1.1316
 Frc consts  --      0.0318                 0.0380                 0.0414
 IR Inten    --      1.3026                 2.0169                 0.0000

                      7                      8                      9
                      A                      A                      A
 Frequencies --    255.1766               269.5755               291.2341
 Red. masses --      1.1930                 1.1135                 2.6691
 Frc consts  --      0.0458                 0.0477                 0.1334
 IR Inten    --      0.0000                 2.0695                 0.0000

                     10                     11                     12
                      A                      A                      A
 Frequencies --    340.4982               371.4053               399.8838
 Red. masses --      2.3411                 2.1495                 2.2529
 Frc consts  --      0.1599                 0.1747                 0.2123
 IR Inten    --      0.0000                 0.0000                24.0745

                     13                     14                     15
                      A                      A                      A
 Frequencies --    442.9978               491.5509               499.2935
 Red. masses --      2.1616                 2.6113                 2.5036
 Frc consts  --      0.2499                 0.3717                 0.3677
 IR Inten    --      2.2415                 9.1164                 0.0000

                     16                     17                     18
                      A                      A                      A
 Frequencies --    801.4312               846.0241               883.7700
 Red. masses --      1.3212                 3.1492                 3.6862
 Frc consts  --      0.5000                 1.3280                 1.6963
 IR Inten    --     13.2494                51.5950                 0.0000

                     19                     20                     21
                      A                      A                      A
 Frequencies --   1032.8876              1049.7137              1061.5758
 Red. masses --      2.9273                 2.1832                 1.6334
 Frc consts  --      1.8401                 1.4174                 1.0845
 IR Inten    --      0.0000               115.2368                 0.0000

                     22                     23                     24
                      A                      A                      A
 Frequencies --   1061.9966              1076.0009              1094.1767
 Red. masses --      1.7348                 1.9203                 1.8503
 Frc consts  --      1.1528                 1.3099                 1.3051
 IR Inten    --     43.9457                 0.0000                 0.0000

                     25                     26                     27
                      A                      A                      A
 Frequencies --   1122.5713              1124.1382              1162.1661
 Red. masses --      1.2460                 1.2896                 1.3979
 Frc consts  --      0.9251                 0.9601                 1.1124
 IR Inten    --     13.5374                 0.0000                41.7184

                     28                     29                     30
                      A                      A                      A
 Frequencies --   1190.5145              1196.4679              1266.5127
 Red. masses --      1.7746                 1.6320                 2.6215
 Frc consts  --      1.4819                 1.3765                 2.4775
 IR Inten    --     40.0005                 0.0000                 0.0000

                     31                     32                     33
                      A                      A                      A
 Frequencies --   1290.1217              1297.6334              1303.5228
 Red. masses --      1.4591                 2.4188                 2.2657
 Frc consts  --      1.4309                 2.3997                 2.2682
 IR Inten    --     71.3081                 0.0000                22.1990

                     34                     35                     36
                      A                      A                      A
 Frequencies --   1341.9170              1377.1644              1435.3465
 Red. masses --      1.1626                 1.4324                 1.3773
 Frc consts  --      1.2335                 1.6007                 1.6719
 IR Inten    --      0.0000                19.6317                 0.0000

                     37                     38                     39
                      A                      A                      A
 Frequencies --   1451.7889              1454.5036              1479.1430
 Red. masses --      1.1613                 1.1667                 1.1649
 Frc consts  --      1.4421                 1.4543                 1.5016
 IR Inten    --     10.0475                 0.0000                 0.0000

                     40                     41                     42
                      A                      A                      A
 Frequencies --   1481.0966              1490.2632              1491.6306
 Red. masses --      1.1612                 1.0449                 1.0632
 Frc consts  --      1.5008                 1.3672                 1.3938
 IR Inten    --      3.7894                 0.0000                21.2735

                     43                     44                     45
                      A                      A                      A
 Frequencies --   1498.2790              1501.0544              1506.5706
 Red. masses --      1.0780                 1.0487                 1.0474
 Frc consts  --      1.4258                 1.3922                 1.4007
 IR Inten    --      0.0000                18.7439                23.7694

                     46                     47                     48
                      A                      A                      A
 Frequencies --   1506.5752              1511.0751              1515.6487
 Red. masses --      1.0518                 1.0965                 1.0649
 Frc consts  --      1.4066                 1.4751                 1.4413
 IR Inten    --      0.0001                 0.0000                15.5087

                     49                     50                     51
                      A                      A                      A
 Frequencies --   1517.0729              1521.8509              2924.9243
 Red. masses --      1.0523                 1.0825                 1.0698
 Frc consts  --      1.4269                 1.4771                 5.3926
 IR Inten    --      0.0000                11.0265                 0.0000

                     52                     53                     54
                      A                      A                      A
 Frequencies --   2929.6768              2929.8606              2931.7946
 Red. masses --      1.0600                 1.0601                 1.0684
 Frc consts  --      5.3606                 5.3613                 5.4104
 IR Inten    --    126.2666                 0.0000                83.6887

                     55                     56                     57
                      A                      A                      A
 Frequencies --   2939.4278              2939.5046              3068.1770
 Red. masses --      1.0636                 1.0657                 1.0739
 Frc consts  --      5.4146                 5.4255                 5.9561
 IR Inten    --      0.0002               607.9366                 0.0000

                     58                     59                     60
                      A                      A                      A
 Frequencies --   3068.3017              3070.4515              3079.5891
 Red. masses --      1.0718                 1.0809                 1.0725
 Frc consts  --      5.9449                 6.0040                 5.9926
 IR Inten    --     99.1388                 0.0000                96.6947

                     61                     62                     63
                      A                      A                      A
 Frequencies --   3082.7030              3089.0106              3114.4919
 Red. masses --      1.0747                 1.0897                 1.1041
 Frc consts  --      6.0171                 6.1264                 6.3101
 IR Inten    --      0.0000               100.3516                 0.0000

                     64                     65                     66
                      A                      A                      A
 Frequencies --   3114.7043              3126.4647              3126.7971
 Red. masses --      1.1038                 1.1016                 1.1018
 Frc consts  --      6.3091                 6.3445                 6.3466
 IR Inten    --    120.8580                 0.0000               103.6527

 - Thermochemistry -
 -------------------
 Temperature   298.150 Kelvin.  Pressure   1.00000 Atm.
 Atom     1 has atomic number  6 and mass  12.00000

 Molecular mass:   116.13135 amu.
 Principal axes and moments of inertia in atomic units:
                           1         2         3
     Eigenvalues --   422.302861989.613942301.42182
           X            0.99996   0.00009   0.00890
           Y           -0.00010   1.00000   0.00022
           Z           -0.00890  -0.00023   0.99996
 This molecule is an asymmetric top.
 Rotational symmetry number  1.
 Rotational temperatures (Kelvin)      0.20510     0.04353     0.03763
 Rotational constants (GHZ):           4.27357     0.90708     0.78419
 Zero-point vibrational energy     584368.3 (Joules/Mol)
                                  139.66737 (Kcal/Mol)
 Warning -- explicit consideration of  15 degrees of freedom as
           vibrations may cause significant error
 Vibrational temperatures:     28.68   117.35   171.10   207.21   353.31
          (Kelvin)            358.33   367.14   387.86   419.02   489.90
                              534.37   575.34   637.37   707.23   718.37
                             1153.08  1217.24  1271.55  1486.09  1510.30
                             1527.37  1527.98  1548.13  1574.28  1615.13
                             1617.38  1672.10  1712.88  1721.45  1822.23
                             1856.20  1867.00  1875.48  1930.72  1981.43
                             2065.14  2088.80  2092.71  2128.16  2130.97
                             2144.16  2146.12  2155.69  2159.68  2167.62
                             2167.63  2174.10  2180.68  2182.73  2189.60
                             4208.31  4215.15  4215.42  4218.20  4229.18
                             4229.29  4414.42  4414.60  4417.69  4430.84
                             4435.32  4444.40  4481.06  4481.36  4498.29
                             4498.76

 Zero-point correction=                           0.222574 (Hartree/Particle)
 Thermal correction to Energy=                    0.233141
 Thermal correction to Enthalpy=                  0.234085
 Thermal correction to Gibbs Free Energy=         0.186196
 Sum of electronic and zero-point Energies=           -347.547034
 Sum of electronic and thermal Energies=              -347.536467
 Sum of electronic and thermal Enthalpies=            -347.535523
 Sum of electronic and thermal Free Energies=         -347.583412

                     E (Thermal)             CV                S
                      KCal/Mol        Cal/Mol-Kelvin    Cal/Mol-Kelvin
 Total                  146.298             37.779            100.791
 Electronic               0.000              0.000              0.000
 Translational            0.889              2.981             40.164
 Rotational               0.889              2.981             29.049
 Vibrational            144.521             31.817             31.578
 Vibration     1          0.593              1.986              6.641
 Vibration     2          0.600              1.962              3.853
 Vibration     3          0.609              1.934              3.118
 Vibration     4          0.616              1.909              2.750
 Vibration     5          0.660              1.770              1.762
 Vibration     6          0.662              1.764              1.737
 Vibration     7          0.666              1.754              1.695
 Vibration     8          0.674              1.729              1.599
 Vibration     9          0.687              1.690              1.467
 Vibration    10          0.720              1.595              1.210
 Vibration    11          0.743              1.531              1.074
 Vibration    12          0.766              1.470              0.963
 Vibration    13          0.803              1.376              0.817
 Vibration    14          0.847              1.269              0.680
 Vibration    15          0.855              1.252              0.660

 Optimization completed.
    -- Stationary point found.
 Normal termination of Gaussian 16 at Thu Jul 11 20:22:38 2024.
 Gaussian 16:  EM64L-G16RevA.03 25-Dec-2016

 ----------------------------------------------------------------------
 # TD(NStates=10, Root=1) B3LYP/6-31G** SCRF=(Solvent=water) volume pop
 =NPA density=current Geom=AllCheck Guess=Read
 ----------------------------------------------------------------------

 Structure from the checkpoint file:  "KWYHDKDOAIKMQN-UHFFFAOYSA-N_conf_0_2.chk"
 ----------------------------------
 KWYHDKDOAIKMQN-UHFFFAOYSA-N_conf_0
 ----------------------------------
 Charge =  0 Multiplicity = 1

                         Standard orientation:
 ---------------------------------------------------------------------
 Center     Atomic      Atomic             Coordinates (Angstroms)
 Number     Number       Type             X           Y           Z
 ---------------------------------------------------------------------
      1          6           0        2.908774    0.984822   -0.017802
      2          7           0        1.871531    0.000891   -0.317130
      3          6           0        2.316346   -1.335224    0.073039
      4          6           0        0.597057    0.373059    0.304989
      5          6           0       -0.597057   -0.373061   -0.304986
      6          7           0       -1.871531   -0.000889    0.317130
      7          6           0       -2.908775   -0.984821    0.017809
      8          6           0       -2.316345    1.335224   -0.073048
      9          1           0        3.834810    0.713280   -0.534658
     10          1           0        3.136616    1.063744    1.062358
     11          1           0        2.599209    1.973515   -0.370490
     12          1           0        2.487460   -1.429649    1.162624
     13          1           0        1.583211   -2.090915   -0.219389
     14          1           0        3.255523   -1.570945   -0.436953
     15          1           0        0.466722    1.449090    0.152761
     16          1           0        0.604090    0.205681    1.399292
     17          1           0       -0.604088   -0.205685   -1.399289
     18          1           0       -0.466724   -1.449092   -0.152755
     19          1           0       -3.834810   -0.713276    0.534662
     20          1           0       -2.599210   -1.973513    0.370502
     21          1           0       -3.136617   -1.063750   -1.062352
     22          1           0       -1.583209    2.090916    0.219374
     23          1           0       -3.255522    1.570950    0.436944
     24          1           0       -2.487461    1.429641   -1.162633
 ---------------------------------------------------------------------

 SCF Done:  E(RB3LYP) =  -347.769607817     A.U. after    1 cycles

 Excitation energies and oscillator strengths:

 Excited State   1:      Singlet-A      6.9885 eV  177.41 nm  f=0.0900  <S**2>=0.000
      32 -> 35        -0.30765
      33 -> 34         0.63502
 This state for optimization and/or second-order correction.
 Total Energy, E(TD-HF/TD-DFT) =  -347.512784915
 Copying the excited state density for this state as the 1-particle RhoCI density.

 Excited State   2:      Singlet-A      7.0431 eV  176.04 nm  f=0.0000  <S**2>=0.000
      32 -> 34         0.57463
      33 -> 35        -0.40831

 Excited State   3:      Singlet-A      7.4483 eV  166.46 nm  f=0.0000  <S**2>=0.000
      32 -> 34         0.40607
      33 -> 35         0.56874

 Excited State   4:      Singlet-A      7.4913 eV  165.50 nm  f=0.0488  <S**2>=0.000
      32 -> 35         0.62684
      33 -> 34         0.30449

 Excited State   5:      Singlet-A      7.9188 eV  156.57 nm  f=0.0000  <S**2>=0.000
      33 -> 36         0.70227

 Excited State   6:      Singlet-A      8.0115 eV  154.76 nm  f=0.0418  <S**2>=0.000
      32 -> 36         0.70135

 Excited State   7:      Singlet-A      8.4203 eV  147.25 nm  f=0.0000  <S**2>=0.000
      32 -> 37        -0.40193
      32 -> 40        -0.11666
      33 -> 38         0.55657

 Excited State   8:      Singlet-A      8.4230 eV  147.20 nm  f=0.0270  <S**2>=0.000
      32 -> 38        -0.44490
      33 -> 37         0.52281
      33 -> 40         0.11679

 Excited State   9:      Singlet-A      8.8022 eV  140.86 nm  f=0.1229  <S**2>=0.000
      32 -> 38        -0.22133
      32 -> 41        -0.25932
      33 -> 37        -0.32247
      33 -> 40         0.51070

 Excited State  10:      Singlet-A      8.8195 eV  140.58 nm  f=0.0000  <S**2>=0.000
      32 -> 37        -0.31984
      32 -> 40        -0.22735
      32 -> 42        -0.14924
      33 -> 38        -0.32905
      33 -> 41         0.43731

 The electronic state is 1-A.
 Alpha  occ. eigenvalues --  -14.32472 -14.32472 -10.20175 -10.20154 -10.19800
 Alpha  occ. eigenvalues --  -10.19800 -10.19766 -10.19766  -0.92168  -0.90783
 Alpha  occ. eigenvalues --   -0.74190  -0.70102  -0.69791  -0.65840  -0.59257
 Alpha  occ. eigenvalues --   -0.56663  -0.48228  -0.47907  -0.46300  -0.45154
 Alpha  occ. eigenvalues --   -0.43986  -0.42739  -0.40492  -0.38661  -0.38261
 Alpha  occ. eigenvalues --   -0.37020  -0.36580  -0.36057  -0.35934  -0.33920
 Alpha  occ. eigenvalues --   -0.32590  -0.21543  -0.21168
 Alpha virt. eigenvalues --    0.08373   0.09255   0.11700   0.13886   0.14084
 Alpha virt. eigenvalues --    0.15142   0.15175   0.15535   0.16024   0.16534
 Alpha virt. eigenvalues --    0.16885   0.18570   0.19101   0.19187   0.19739

 Mulliken charges:
               1
     1  C   -0.144023
     2  N   -0.309925
     3  C   -0.124860
     4  C    0.006133
     5  C    0.006133
     6  N   -0.309927
     7  C   -0.144024
     8  C   -0.124861
     9  H    0.087931
    10  H    0.103177
    11  H    0.072966
    12  H    0.092654
    13  H    0.076930
    14  H    0.051825
    15  H    0.021211
    16  H    0.065981
    17  H    0.065981
    18  H    0.021211
    19  H    0.087931
    20  H    0.072967
    21  H    0.103177
    22  H    0.076930
    23  H    0.051826
    24  H    0.092654
 Sum of Mulliken charges =  -0.00000

 Dipole moment (field-independent basis, Debye):
    X=              0.0000    Y=             -0.0000    Z=             -0.0000  Tot=              0.0000
 Quadrupole moment (field-independent basis, Debye-Ang):
   XX=            -52.3024   YY=            -55.9581   ZZ=            -56.8410
   XY=              1.1351   XZ=              2.4537   YZ=              0.1409

 Summary of Natural Population Analysis:

                                       Natural Population
                Natural  -----------------------------------------------
    Atom  No    Charge         Core      Valence    Rydberg      Total
 -----------------------------------------------------------------------
      C    1   -0.52342      1.99946     4.50610    0.01787     6.52342
      N    2   -0.26731      1.99940     5.25552    0.01239     7.26731
      C    3   -0.52168      1.99944     4.50478    0.01746     6.52168
      C    4   -0.31181      1.99930     4.28985    0.02267     6.31181
      C    5   -0.31181      1.99930     4.28985    0.02267     6.31181
      N    6   -0.26731      1.99940     5.25552    0.01239     7.26731
      C    7   -0.52342      1.99946     4.50609    0.01787     6.52342
      C    8   -0.52168      1.99944     4.50478    0.01746     6.52168
      H    9    0.21628      0.00000     0.76843    0.01529     0.78372
      H   10    0.22143      0.00000     0.76396    0.01460     0.77857
      H   11    0.20077      0.00000     0.78027    0.01896     0.79923
      H   12    0.21560      0.00000     0.76664    0.01776     0.78440
      H   13    0.20289      0.00000     0.78004    0.01707     0.79711
      H   14    0.18773      0.00000     0.78941    0.02286     0.81227
      H   15    0.17295      0.00000     0.79215    0.03490     0.82705
      H   16    0.20657      0.00000     0.77053    0.02291     0.79343
      H   17    0.20657      0.00000     0.77053    0.02290     0.79343
      H   18    0.17295      0.00000     0.79215    0.03490     0.82705
      H   19    0.21628      0.00000     0.76843    0.01529     0.78372
      H   20    0.20077      0.00000     0.78027    0.01896     0.79923
      H   21    0.22143      0.00000     0.76396    0.01460     0.77857
      H   22    0.20289      0.00000     0.78004    0.01707     0.79711
      H   23    0.18773      0.00000     0.78941    0.02286     0.81227
      H   24    0.21560      0.00000     0.76664    0.01776     0.78440
 =======================================================================
   * Total *    0.00000     15.99518    49.53537    0.46946    66.00000

 1\1\GINC-CN33\SP\RB3LYP TD-FC\6-31G(d,p)\C6H16N2\QDUEZ\11-Jul-2024\0\\
 # TD(NStates=10, Root=1) B3LYP/6-31G** SCRF=(Solvent=water) volume pop
 =NPA density=current Geom=AllCheck Guess=Read\\KWYHDKDOAIKMQN-UHFFFAOY
 SA-N_conf_0\\0,1\C,0,2.7653366137,-1.3028440386,-0.2300988187\N,0,1.79
 25872564,-0.4711833607,0.4739547971\C,0,2.4164029965,0.7771641197,0.90
 72881586\C,0,0.5985142119,-0.2475261418,-0.3470139535\C,0,-0.598513596
 1,0.2475286392,0.4756147286\N,0,-1.7925875836,0.4711811196,-0.34535407
 73\C,0,-2.765336199,1.3028464191,0.3586950898\C,0,-2.4164039363,-0.777

 Normal termination of Gaussian 16 at Thu Jul 11 20:44:41 2024.
