 Gaussian 16, Revision A.03,

 -------------------------------------------------------
 # opt=CalcFc B3LYP/6-31G** SCRF=(Solvent=water) scf=xqc
 -------------------------------------------------------

 ----------------------------------
 KWYHDKDOAIKMQN-UHFFFAOYSA-N_conf_3
 ----------------------------------
 Symbolic Z-matrix:
 Charge =  0 Multiplicity = 1

 SCF Done:  E(RB3LYP) =  -347.767852253     A.U. after   11 cycles
 SCF Done:  E(RB3LYP) =  -347.769450577     A.U. after    9 cycles
 SCF Done:  E(RB3LYP) =  -347.769484534     A.U. after    9 cycles
 SCF Done:  E(RB3LYP) =  -347.769484922     A.U. after    7 cycles
 Optimization completed.
    -- Stationary point found.
 Normal termination of Gaussian 16 at Thu Jul 11 20:07:28 2024.

 ----------------------------------------------------------------------
 # freq B3LYP/6-31G** SCRF=(Solvent=water) volume NMR pop=NPA density=c
 urrent Geom=AllCheck Guess=Read
 ----------------------------------------------------------------------

 Structure from the checkpoint file:  "KWYHDKDOAIKMQN-UHFFFAOYSA-N_conf_3_1.chk"
 ----------------------------------
 KWYHDKDOAIKMQN-UHFFFAOYSA-N_conf_3
 ----------------------------------
 Charge =  0 Multiplicity = 1

 SCF Done:  E(RB3LYP) =  -347.769484922     A.U. after    1 cycles

      1  C    Isotropic =   149.3661   Anisotropy =    59.8104

      2  N    Isotropic =   224.3212   Anisotropy =    37.8433

      3  C    Isotropic =   144.9621   Anisotropy =    68.5949

      4  C    Isotropic =   133.8423   Anisotropy =    56.9499

      5  C    Isotropic =   133.8423   Anisotropy =    56.9499

      6  N    Isotropic =   224.3212   Anisotropy =    37.8433

      7  C    Isotropic =   149.3661   Anisotropy =    59.8104

      8  C    Isotropic =   144.9621   Anisotropy =    68.5949

      9  H    Isotropic =    30.1586   Anisotropy =     8.0170

     10  H    Isotropic =    29.6624   Anisotropy =     9.6953

     11  H    Isotropic =    29.3309   Anisotropy =     8.2261

     12  H    Isotropic =    29.5317   Anisotropy =    10.0966

     13  H    Isotropic =    29.4966   Anisotropy =     9.5262

     14  H    Isotropic =    29.7616   Anisotropy =     8.3313

     15  H    Isotropic =    29.4263   Anisotropy =     5.1643

     16  H    Isotropic =    29.4984   Anisotropy =     5.5695

     17  H    Isotropic =    29.4984   Anisotropy =     5.5695

     18  H    Isotropic =    29.4263   Anisotropy =     5.1643

     19  H    Isotropic =    29.6624   Anisotropy =     9.6953

     20  H    Isotropic =    29.3309   Anisotropy =     8.2261

     21  H    Isotropic =    30.1586   Anisotropy =     8.0170

     22  H    Isotropic =    29.4966   Anisotropy =     9.5262

     23  H    Isotropic =    29.7616   Anisotropy =     8.3313

     24  H    Isotropic =    29.5317   Anisotropy =    10.0966

  Exact polarizability: 114.631   0.097  98.708  -0.000   0.000  96.631
 Approx polarizability: 112.180  -1.133 106.394  -0.000   0.000 106.005

                      1                      2                      3
                      A                      A                      A
 Frequencies --     29.3104                85.5653               126.0371
 Red. masses --      2.5102                 2.5348                 2.2080
 Frc consts  --      0.0013                 0.0109                 0.0207
 IR Inten    --      0.3644                 0.2432                 0.5873

                      4                      5                      6
                      A                      A                      A
 Frequencies --    148.5307               249.3231               257.6211
 Red. masses --      2.2068                 1.2350                 1.0681
 Frc consts  --      0.0287                 0.0452                 0.0418
 IR Inten    --      0.9136                 0.4820                 1.6664

                      7                      8                      9
                      A                      A                      A
 Frequencies --    258.1985               271.0961               289.3086
 Red. masses --      1.1706                 1.1026                 2.2235
 Frc consts  --      0.0460                 0.0477                 0.1096
 IR Inten    --      0.2703                 2.3369                 0.0412

                     10                     11                     12
                      A                      A                      A
 Frequencies --    344.6275               376.8723               394.2169
 Red. masses --      2.4201                 2.1641                 2.1528
 Frc consts  --      0.1693                 0.1811                 0.1971
 IR Inten    --      4.6913                 7.7351                10.7702

                     13                     14                     15
                      A                      A                      A
 Frequencies --    440.0517               495.1765               499.5637
 Red. masses --      2.1637                 2.7129                 2.4915
 Frc consts  --      0.2469                 0.3919                 0.3663
 IR Inten    --      1.2087                 4.0970                 0.0754

                     16                     17                     18
                      A                      A                      A
 Frequencies --    816.2582               834.5759               883.9834
 Red. masses --      1.1856                 4.3808                 3.6428
 Frc consts  --      0.4654                 1.7978                 1.6772
 IR Inten    --      0.0742                21.3376                54.6015

                     19                     20                     21
                      A                      A                      A
 Frequencies --   1029.8425              1048.8273              1060.2160
 Red. masses --      2.9417                 2.2195                 1.6086
 Frc consts  --      1.8382                 1.4385                 1.0654
 IR Inten    --      0.9869               110.0121                10.8642

                     22                     23                     24
                      A                      A                      A
 Frequencies --   1062.1011              1084.0871              1091.1125
 Red. masses --      1.7595                 2.2425                 1.5517
 Frc consts  --      1.1694                 1.5528                 1.0884
 IR Inten    --     28.1988                 1.1871                17.5682

                     25                     26                     27
                      A                      A                      A
 Frequencies --   1123.4514              1125.2437              1164.6950
 Red. masses --      1.2645                 1.3025                 1.3410
 Frc consts  --      0.9403                 0.9717                 1.0718
 IR Inten    --     12.3399                 5.7421                12.4388

                     28                     29                     30
                      A                      A                      A
 Frequencies --   1186.8992              1217.7629              1231.7988
 Red. masses --      1.6089                 1.9058                 2.0415
 Frc consts  --      1.3354                 1.6652                 1.8251
 IR Inten    --     37.0373                 2.7342                 2.5744

                     31                     32                     33
                      A                      A                      A
 Frequencies --   1297.9215              1302.4432              1317.2866
 Red. masses --      2.4732                 2.4157                 1.6264
 Frc consts  --      2.4548                 2.4144                 1.6627
 IR Inten    --      2.5684                36.3114                28.5895

                     34                     35                     36
                      A                      A                      A
 Frequencies --   1342.7709              1364.2386              1431.5227
 Red. masses --      1.1388                 1.4429                 1.4263
 Frc consts  --      1.2098                 1.5822                 1.7221
 IR Inten    --      7.0456                30.7490                 0.1143

                     37                     38                     39
                      A                      A                      A
 Frequencies --   1451.2126              1451.5058              1479.7842
 Red. masses --      1.1578                 1.1618                 1.1670
 Frc consts  --      1.4366                 1.4422                 1.5056
 IR Inten    --      8.4299                 2.3102                 1.8518

                     40                     41                     42
                      A                      A                      A
 Frequencies --   1479.8688              1489.9981              1491.2958
 Red. masses --      1.1756                 1.0484                 1.0586
 Frc consts  --      1.5169                 1.3714                 1.3872
 IR Inten    --      0.3152                14.6599                 6.6108

                     43                     44                     45
                      A                      A                      A
 Frequencies --   1496.7107              1500.5455              1505.7099
 Red. masses --      1.0678                 1.0453                 1.0485
 Frc consts  --      1.4094                 1.3868                 1.4005
 IR Inten    --      0.9509                25.2935                 6.3658

                     46                     47                     48
                      A                      A                      A
 Frequencies --   1506.4995              1512.2223              1516.4170
 Red. masses --      1.0486                 1.0914                 1.0590
 Frc consts  --      1.4022                 1.4705                 1.4347
 IR Inten    --      8.8488                 4.5353                20.3984

                     49                     50                     51
                      A                      A                      A
 Frequencies --   1517.8964              1523.7533              2924.7756
 Red. masses --      1.0579                 1.0890                 1.0702
 Frc consts  --      1.4360                 1.4897                 5.3937
 IR Inten    --      0.1623                 7.5717                88.5955

                     52                     53                     54
                      A                      A                      A
 Frequencies --   2927.9977              2928.0378              2929.6583
 Red. masses --      1.0601                 1.0609                 1.0666
 Frc consts  --      5.3547                 5.3592                 5.3936
 IR Inten    --     79.5782                48.1834                 0.0269

                     55                     56                     57
                      A                      A                      A
 Frequencies --   2936.3534              2940.3966              3066.7758
 Red. masses --      1.0622                 1.0663                 1.0823
 Frc consts  --      5.3962                 5.4318                 5.9973
 IR Inten    --    273.7950               308.3399                46.6546

                     58                     59                     60
                      A                      A                      A
 Frequencies --   3068.8406              3069.5221              3077.1210
 Red. masses --      1.0719                 1.0745                 1.0908
 Frc consts  --      5.9480                 5.9647                 6.0852
 IR Inten    --     56.3604                27.9130                80.7692

                     61                     62                     63
                      A                      A                      A
 Frequencies --   3080.2329              3080.4537              3115.0792
 Red. masses --      1.0723                 1.0721                 1.1042
 Frc consts  --      5.9942                 5.9940                 6.3128
 IR Inten    --     98.2702                14.0787                82.9921

                     64                     65                     66
                      A                      A                      A
 Frequencies --   3115.1012              3127.7448              3127.8719
 Red. masses --      1.1041                 1.1021                 1.1022
 Frc consts  --      6.3128                 6.3524                 6.3532
 IR Inten    --     22.7349                93.0910                 5.0461

 - Thermochemistry -
 -------------------
 Temperature   298.150 Kelvin.  Pressure   1.00000 Atm.
 Atom     1 has atomic number  6 and mass  12.00000

 Molecular mass:   116.13135 amu.
 Principal axes and moments of inertia in atomic units:
                           1         2         3
     Eigenvalues --   420.041842097.343522167.98373
           X            0.99998   0.00687   0.00000
           Y           -0.00687   0.99998   0.00000
           Z           -0.00000  -0.00000   1.00000
 This molecule is an asymmetric top.
 Rotational symmetry number  1.
 Rotational temperatures (Kelvin)      0.20620     0.04130     0.03995
 Rotational constants (GHZ):           4.29657     0.86049     0.83245
 Zero-point vibrational energy     584506.9 (Joules/Mol)
                                  139.70050 (Kcal/Mol)
 Warning -- explicit consideration of  15 degrees of freedom as
           vibrations may cause significant error
 Vibrational temperatures:     42.17   123.11   181.34   213.70   358.72
          (Kelvin)            370.66   371.49   390.05   416.25   495.84
                              542.24   567.19   633.14   712.45   718.76
                             1174.41  1200.77  1271.86  1481.71  1509.03
                             1525.41  1528.13  1559.76  1569.87  1616.40
                             1618.97  1675.74  1707.68  1752.09  1772.28
                             1867.42  1873.93  1895.28  1931.95  1962.84
                             2059.64  2087.97  2088.39  2129.08  2129.20
                             2143.77  2145.64  2153.43  2158.95  2166.38
                             2167.52  2175.75  2181.79  2183.91  2192.34
                             4208.10  4212.74  4212.79  4215.12  4224.76
                             4230.57  4412.41  4415.38  4416.36  4427.29
                             4431.77  4432.09  4481.90  4481.94  4500.13
                             4500.31

 Zero-point correction=                           0.222627 (Hartree/Particle)
 Thermal correction to Energy=                    0.233117
 Thermal correction to Enthalpy=                  0.234061
 Thermal correction to Gibbs Free Energy=         0.186729
 Sum of electronic and zero-point Energies=           -347.546858
 Sum of electronic and thermal Energies=              -347.536368
 Sum of electronic and thermal Enthalpies=            -347.535424
 Sum of electronic and thermal Free Energies=         -347.582756

                     E (Thermal)             CV                S
                      KCal/Mol        Cal/Mol-Kelvin    Cal/Mol-Kelvin
 Total                  146.283             37.722             99.617
 Electronic               0.000              0.000              0.000
 Translational            0.889              2.981             40.164
 Rotational               0.889              2.981             29.037
 Vibrational            144.505             31.760             30.417
 Vibration     1          0.593              1.984              5.876
 Vibration     2          0.601              1.959              3.759
 Vibration     3          0.611              1.927              3.006
 Vibration     4          0.618              1.904              2.691
 Vibration     5          0.662              1.764              1.735
 Vibration     6          0.667              1.750              1.678
 Vibration     7          0.667              1.749              1.674
 Vibration     8          0.675              1.726              1.589
 Vibration     9          0.686              1.694              1.478
 Vibration    10          0.723              1.586              1.191
 Vibration    11          0.747              1.519              1.052
 Vibration    12          0.761              1.483              0.984
 Vibration    13          0.800              1.383              0.826
 Vibration    14          0.851              1.261              0.670
 Vibration    15          0.855              1.251              0.659

 Optimization completed.
    -- Stationary point found.
 Normal termination of Gaussian 16 at Thu Jul 11 20:23:03 2024.
 Gaussian 16:  EM64L-G16RevA.03 25-Dec-2016

 ----------------------------------------------------------------------
 # TD(NStates=10, Root=1) B3LYP/6-31G** SCRF=(Solvent=water) volume pop
 =NPA density=current Geom=AllCheck Guess=Read
 ----------------------------------------------------------------------

 Structure from the checkpoint file:  "KWYHDKDOAIKMQN-UHFFFAOYSA-N_conf_3_2.chk"
 ----------------------------------
 KWYHDKDOAIKMQN-UHFFFAOYSA-N_conf_3
 ----------------------------------
 Charge =  0 Multiplicity = 1

                         Standard orientation:
 ---------------------------------------------------------------------
 Center     Atomic      Atomic             Coordinates (Angstroms)
 Number     Number       Type             X           Y           Z
 ---------------------------------------------------------------------
      1          6           0       -2.248302    1.009207    0.871580
      2          7           0       -1.879521    0.212438   -0.297135
      3          6           0       -2.940127   -0.740302   -0.614418
      4          6           0       -0.598450   -0.480155   -0.119180
      5          6           0        0.598450    0.480155   -0.119180
      6          7           0        1.879521   -0.212437   -0.297135
      7          6           0        2.248302   -1.009207    0.871580
      8          6           0        2.940127    0.740302   -0.614418
      9          1           0       -2.354841    0.400761    1.790435
     10          1           0       -3.204438    1.508238    0.685792
     11          1           0       -1.500697    1.782543    1.063938
     12          1           0       -3.876972   -0.202892   -0.792778
     13          1           0       -2.685021   -1.293465   -1.523661
     14          1           0       -3.121176   -1.475848    0.192646
     15          1           0       -0.466584   -1.166076   -0.963261
     16          1           0       -0.607581   -1.098119    0.798946
     17          1           0        0.607581    1.098119    0.798945
     18          1           0        0.466584    1.166076   -0.963261
     19          1           0        3.204438   -1.508238    0.685792
     20          1           0        1.500697   -1.782543    1.063937
     21          1           0        2.354841   -0.400761    1.790435
     22          1           0        2.685021    1.293465   -1.523661
     23          1           0        3.121176    1.475848    0.192647
     24          1           0        3.876972    0.202892   -0.792777
 ---------------------------------------------------------------------

 SCF Done:  E(RB3LYP) =  -347.769484922     A.U. after    1 cycles

 Excitation energies and oscillator strengths:

 Excited State   1:      Singlet-A      6.9928 eV  177.30 nm  f=0.0673  <S**2>=0.000
      32 -> 35         0.30316
      33 -> 34         0.63653
 This state for optimization and/or second-order correction.
 Total Energy, E(TD-HF/TD-DFT) =  -347.512504486
 Copying the excited state density for this state as the 1-particle RhoCI density.

 Excited State   2:      Singlet-A      7.0045 eV  177.01 nm  f=0.0349  <S**2>=0.000
      32 -> 34         0.33702
      33 -> 35         0.61834

 Excited State   3:      Singlet-A      7.4908 eV  165.52 nm  f=0.0904  <S**2>=0.000
      32 -> 34         0.61724
      33 -> 35        -0.33132

 Excited State   4:      Singlet-A      7.4974 eV  165.37 nm  f=0.0085  <S**2>=0.000
      32 -> 35         0.62956
      33 -> 34        -0.29972

 Excited State   5:      Singlet-A      8.2434 eV  150.40 nm  f=0.0476  <S**2>=0.000
      32 -> 37        -0.15729
      32 -> 39        -0.11459
      33 -> 36         0.65343
      33 -> 38         0.16561

 Excited State   6:      Singlet-A      8.2494 eV  150.29 nm  f=0.0371  <S**2>=0.000
      32 -> 36        -0.16205
      33 -> 37         0.67829

 Excited State   7:      Singlet-A      8.3892 eV  147.79 nm  f=0.0329  <S**2>=0.000
      32 -> 37         0.15210
      32 -> 39        -0.27838
      33 -> 36        -0.16012
      33 -> 38         0.59151

 Excited State   8:      Singlet-A      8.4080 eV  147.46 nm  f=0.0127  <S**2>=0.000
      32 -> 36        -0.22752
      32 -> 38        -0.36388
      33 -> 39         0.53591
      33 -> 40         0.11870

 Excited State   9:      Singlet-A      8.5475 eV  145.05 nm  f=0.1285  <S**2>=0.000
      32 -> 37         0.64371
      33 -> 36         0.19218
      33 -> 38        -0.13507
      33 -> 42         0.11555

 Excited State  10:      Singlet-A      8.6001 eV  144.17 nm  f=0.0319  <S**2>=0.000
      32 -> 36         0.63570
      32 -> 38        -0.16830
      33 -> 37         0.15031
      33 -> 39         0.14488
      33 -> 40         0.11414

 The electronic state is 1-A.
 Alpha  occ. eigenvalues --  -14.32476 -14.32476 -10.20213 -10.20192 -10.19780
 Alpha  occ. eigenvalues --  -10.19780 -10.19749 -10.19749  -0.92192  -0.90798
 Alpha  occ. eigenvalues --   -0.74180  -0.69999  -0.69866  -0.65780  -0.59301
 Alpha  occ. eigenvalues --   -0.56598  -0.48154  -0.48029  -0.46269  -0.45093
 Alpha  occ. eigenvalues --   -0.43987  -0.42513  -0.40889  -0.38638  -0.38410
 Alpha  occ. eigenvalues --   -0.37346  -0.36338  -0.36148  -0.34919  -0.33525
 Alpha  occ. eigenvalues --   -0.33422  -0.21898  -0.20865
 Alpha virt. eigenvalues --    0.08643   0.08925   0.13195   0.13220   0.13997
 Alpha virt. eigenvalues --    0.14078   0.15147   0.15440   0.16091   0.16835
 Alpha virt. eigenvalues --    0.17017   0.17124   0.18550   0.19828   0.21150

 Mulliken charges:
               1
     1  C   -0.131769
     2  N   -0.310940
     3  C   -0.145149
     4  C    0.005746
     5  C    0.005747
     6  N   -0.310939
     7  C   -0.131769
     8  C   -0.145149
     9  H    0.094755
    10  H    0.056589
    11  H    0.079123
    12  H    0.086198
    13  H    0.073362
    14  H    0.105528
    15  H    0.052908
    16  H    0.033649
    17  H    0.033649
    18  H    0.052907
    19  H    0.056589
    20  H    0.079123
    21  H    0.094755
    22  H    0.073362
    23  H    0.105528
    24  H    0.086198
 Sum of Mulliken charges =  -0.00000

 Dipole moment (field-independent basis, Debye):
    X=             -0.0000    Y=             -0.0000    Z=              0.6537  Tot=              0.6537
 Quadrupole moment (field-independent basis, Debye-Ang):
   XX=            -52.4845   YY=            -55.8428   ZZ=            -56.8119
   XY=              2.2852   XZ=             -0.0000   YZ=              0.0000

 Summary of Natural Population Analysis:

                                       Natural Population
                Natural  -----------------------------------------------
    Atom  No    Charge         Core      Valence    Rydberg      Total
 -----------------------------------------------------------------------
      C    1   -0.52288      1.99944     4.50610    0.01734     6.52288
      N    2   -0.27034      1.99939     5.25863    0.01232     7.27034
      C    3   -0.52315      1.99946     4.50564    0.01805     6.52315
      C    4   -0.31312      1.99929     4.29236    0.02148     6.31312
      C    5   -0.31312      1.99929     4.29236    0.02148     6.31312
      N    6   -0.27034      1.99939     5.25863    0.01232     7.27034
      C    7   -0.52288      1.99944     4.50610    0.01734     6.52288
      C    8   -0.52315      1.99946     4.50564    0.01805     6.52315
      H    9    0.21718      0.00000     0.76509    0.01773     0.78282
      H   10    0.19071      0.00000     0.78748    0.02181     0.80929
      H   11    0.20364      0.00000     0.78026    0.01610     0.79636
      H   12    0.21457      0.00000     0.77036    0.01507     0.78543
      H   13    0.20060      0.00000     0.78077    0.01864     0.79940
      H   14    0.22260      0.00000     0.76389    0.01351     0.77740
      H   15    0.20281      0.00000     0.77219    0.02500     0.79719
      H   16    0.17740      0.00000     0.78502    0.03758     0.82260
      H   17    0.17740      0.00000     0.78502    0.03758     0.82260
      H   18    0.20281      0.00000     0.77219    0.02500     0.79719
      H   19    0.19071      0.00000     0.78748    0.02181     0.80929
      H   20    0.20364      0.00000     0.78026    0.01610     0.79636
      H   21    0.21718      0.00000     0.76509    0.01773     0.78282
      H   22    0.20060      0.00000     0.78077    0.01864     0.79940
      H   23    0.22260      0.00000     0.76389    0.01351     0.77740
      H   24    0.21457      0.00000     0.77036    0.01507     0.78543
 =======================================================================
   * Total *    0.00000     15.99515    49.53559    0.46926    66.00000

 1\1\GINC-CN34\SP\RB3LYP TD-FC\6-31G(d,p)\C6H16N2\QDUEZ\11-Jul-2024\0\\
 # TD(NStates=10, Root=1) B3LYP/6-31G** SCRF=(Solvent=water) volume pop
 =NPA density=current Geom=AllCheck Guess=Read\\KWYHDKDOAIKMQN-UHFFFAOY
 SA-N_conf_3\\0,1\C,0,2.1263987718,-1.6103793233,0.2811967831\N,0,1.914
 6121096,-0.1643739507,0.2503733639\C,0,2.7866646807,0.4949180205,1.218
 941686\C,0,0.5128509938,0.1998301491,0.4847173994\C,0,-0.401779547,-0.
 1829887474,-0.6864628476\N,0,-1.7095324358,0.4790040018,-0.6228712999\
 C,0,-2.5387153045,-0.0307089649,0.4677173727\C,0,-2.413974041,0.350651

 Normal termination of Gaussian 16 at Thu Jul 11 20:41:43 2024.
