 Gaussian 16, Revision A.03,

 -------------------------------------------------------
 # opt=CalcFc B3LYP/6-31G** SCRF=(Solvent=water) scf=xqc
 -------------------------------------------------------

 ----------------------------------
 PWGJDPKCLMLPJW-UHFFFAOYSA-N_conf_3
 ----------------------------------
 Symbolic Z-matrix:
 Charge =  0 Multiplicity = 1

 SCF Done:  E(RB3LYP) =  -426.422759844     A.U. after   11 cycles
 SCF Done:  E(RB3LYP) =  -426.426443439     A.U. after    9 cycles
 SCF Done:  E(RB3LYP) =  -426.426532027     A.U. after    8 cycles
 SCF Done:  E(RB3LYP) =  -426.426532960     A.U. after    7 cycles
 SCF Done:  E(RB3LYP) =  -426.426532899     A.U. after    5 cycles
 Optimization completed.
    -- Stationary point found.
 Normal termination of Gaussian 16 at Tue Jul  9 18:29:49 2024.

 ----------------------------------------------------------------------
 # freq B3LYP/6-31G** SCRF=(Solvent=water) volume NMR pop=NPA density=c
 urrent Geom=AllCheck Guess=Read
 ----------------------------------------------------------------------

 Structure from the checkpoint file:  "PWGJDPKCLMLPJW-UHFFFAOYSA-N_conf_3_1.chk"
 ----------------------------------
 PWGJDPKCLMLPJW-UHFFFAOYSA-N_conf_3
 ----------------------------------
 Charge =  0 Multiplicity = 1

 SCF Done:  E(RB3LYP) =  -426.426532899     A.U. after    1 cycles

      1  N    Isotropic =   230.7344   Anisotropy =    27.2498

      2  C    Isotropic =   147.8003   Anisotropy =    37.8103

      3  C    Isotropic =   152.3257   Anisotropy =    31.9402

      4  C    Isotropic =   162.4702   Anisotropy =    19.9465

      5  C    Isotropic =   157.7251   Anisotropy =    25.3676

      6  C    Isotropic =   160.4622   Anisotropy =    14.0808

      7  C    Isotropic =   161.2202   Anisotropy =    21.0754

      8  C    Isotropic =   157.1376   Anisotropy =    13.4182

      9  C    Isotropic =   144.0104   Anisotropy =    22.9369

     10  N    Isotropic =   233.1810   Anisotropy =    30.3074

     11  H    Isotropic =    31.4945   Anisotropy =    12.5569

     12  H    Isotropic =    31.5041   Anisotropy =    12.7200

     13  H    Isotropic =    29.4749   Anisotropy =     5.3391

     14  H    Isotropic =    29.0421   Anisotropy =     6.0338

     15  H    Isotropic =    30.2861   Anisotropy =     6.4222

     16  H    Isotropic =    30.4906   Anisotropy =     4.9002

     17  H    Isotropic =    30.4133   Anisotropy =     6.5777

     18  H    Isotropic =    30.1190   Anisotropy =     6.0413

     19  H    Isotropic =    30.4698   Anisotropy =     7.2958

     20  H    Isotropic =    30.3037   Anisotropy =     5.7050

     21  H    Isotropic =    29.9827   Anisotropy =     8.4358

     22  H    Isotropic =    30.3010   Anisotropy =     6.4948

     23  H    Isotropic =    30.2960   Anisotropy =     5.9176

     24  H    Isotropic =    30.1895   Anisotropy =     7.2590

     25  H    Isotropic =    30.4270   Anisotropy =     5.7282

     26  H    Isotropic =    30.2887   Anisotropy =     7.8784

     27  H    Isotropic =    28.9986   Anisotropy =     8.5262

     28  H    Isotropic =    29.3549   Anisotropy =     7.8549

     29  H    Isotropic =    31.8224   Anisotropy =    11.6153

     30  H    Isotropic =    30.9899   Anisotropy =    10.2268

  Exact polarizability: 136.790  -0.122 125.755   3.732  -1.212 121.428
 Approx polarizability: 135.813   0.376 136.458   2.615  -1.083 133.572

                      1                      2                      3
                      A                      A                      A
 Frequencies --     31.2520                38.4149                70.8199
 Red. masses --      3.7707                 3.4395                 2.1586
 Frc consts  --      0.0022                 0.0030                 0.0064
 IR Inten    --      1.0812                 2.4804                 0.1346

                      4                      5                      6
                      A                      A                      A
 Frequencies --     81.7070               102.9425               121.8671
 Red. masses --      2.0157                 3.3646                 2.3339
 Frc consts  --      0.0079                 0.0210                 0.0204
 IR Inten    --      2.4308                 0.0956                 0.6335

                      7                      8                      9
                      A                      A                      A
 Frequencies --    139.3029               231.3172               256.0493
 Red. masses --      2.3042                 2.1829                 2.0306
 Frc consts  --      0.0263                 0.0688                 0.0784
 IR Inten    --      1.9568                 3.3898                 5.1857

                     10                     11                     12
                      A                      A                      A
 Frequencies --    282.8817               301.6607               307.7264
 Red. masses --      2.2001                 1.1792                 2.0513
 Frc consts  --      0.1037                 0.0632                 0.1144
 IR Inten    --     10.6105                73.3955                 6.8621

                     13                     14                     15
                      A                      A                      A
 Frequencies --    335.7474               352.4703               415.6787
 Red. masses --      1.3654                 2.0443                 2.0086
 Frc consts  --      0.0907                 0.1496                 0.2045
 IR Inten    --     50.1522                 8.4222                 2.8689

                     16                     17                     18
                      A                      A                      A
 Frequencies --    466.4628               540.7323               740.1616
 Red. masses --      1.6764                 2.3257                 1.2676
 Frc consts  --      0.2149                 0.4006                 0.4092
 IR Inten    --      8.7265                 0.7888                 3.6720

                     19                     20                     21
                      A                      A                      A
 Frequencies --    759.0663               779.5332               800.4996
 Red. masses --      1.7922                 1.3846                 1.7473
 Frc consts  --      0.6084                 0.4957                 0.6597
 IR Inten    --      1.2243                 3.9808                 0.7949

                     22                     23                     24
                      A                      A                      A
 Frequencies --    847.5310               853.9912               887.6005
 Red. masses --      1.6713                 1.9530                 1.6899
 Frc consts  --      0.7073                 0.8392                 0.7844
 IR Inten    --     50.5953                 5.3283                50.1916

                     25                     26                     27
                      A                      A                      A
 Frequencies --    914.9628               919.5212               940.5683
 Red. masses --      1.9300                 1.4300                 1.6169
 Frc consts  --      0.9520                 0.7124                 0.8428
 IR Inten    --    310.9165                40.9870                 8.9078

                     28                     29                     30
                      A                      A                      A
 Frequencies --    992.2916              1007.1512              1028.9608
 Red. masses --      1.8140                 1.4722                 2.4261
 Frc consts  --      1.0524                 0.8798                 1.5134
 IR Inten    --    129.9590                 8.0728                 4.6477

                     31                     32                     33
                      A                      A                      A
 Frequencies --   1052.5547              1062.4900              1082.7464
 Red. masses --      1.5325                 2.1805                 2.3310
 Frc consts  --      1.0003                 1.4503                 1.6101
 IR Inten    --     10.3815                 3.2831                18.2218

                     34                     35                     36
                      A                      A                      A
 Frequencies --   1092.5030              1105.2156              1130.6645
 Red. masses --      2.0287                 2.3272                 1.1954
 Frc consts  --      1.4266                 1.6748                 0.9004
 IR Inten    --     14.8970                 4.0518                 1.4373

                     37                     38                     39
                      A                      A                      A
 Frequencies --   1139.2215              1182.3770              1206.2519
 Red. masses --      2.2116                 1.4885                 1.3693
 Frc consts  --      1.6912                 1.2261                 1.1739
 IR Inten    --     15.9066                 0.8561                 1.2387

                     40                     41                     42
                      A                      A                      A
 Frequencies --   1268.3052              1282.6626              1292.3777
 Red. masses --      1.3499                 1.2481                 1.2486
 Frc consts  --      1.2793                 1.2098                 1.2287
 IR Inten    --      4.1004                 3.6374                 0.9345

                     43                     44                     45
                      A                      A                      A
 Frequencies --   1317.2341              1325.4074              1348.5213
 Red. masses --      1.2326                 1.1964                 1.2219
 Frc consts  --      1.2601                 1.2383                 1.3092
 IR Inten    --      2.8623                 2.6480                13.9800

                     46                     47                     48
                      A                      A                      A
 Frequencies --   1357.0854              1363.2412              1384.3433
 Red. masses --      1.2449                 1.2884                 1.3617
 Frc consts  --      1.3508                 1.4107                 1.5375
 IR Inten    --      1.4145                 7.6547                 6.9568

                     49                     50                     51
                      A                      A                      A
 Frequencies --   1388.8101              1394.5635              1400.0009
 Red. masses --      1.3806                 1.2421                 1.2111
 Frc consts  --      1.5690                 1.4232                 1.3986
 IR Inten    --      0.8249                 0.5965                 8.3113

                     52                     53                     54
                      A                      A                      A
 Frequencies --   1404.2939              1409.9503              1414.4735
 Red. masses --      1.2694                 1.3842                 1.4526
 Frc consts  --      1.4748                 1.6213                 1.7123
 IR Inten    --     11.5067                 3.2362                 1.1626

                     55                     56                     57
                      A                      A                      A
 Frequencies --   1482.1729              1486.4393              1489.4542
 Red. masses --      1.0784                 1.0844                 1.0899
 Frc consts  --      1.3958                 1.4117                 1.4245
 IR Inten    --      0.9944                 3.1539                 0.3167

                     58                     59                     60
                      A                      A                      A
 Frequencies --   1495.7717              1499.2641              1502.5610
 Red. masses --      1.0950                 1.0923                 1.0821
 Frc consts  --      1.4435                 1.4466                 1.4394
 IR Inten    --      0.7316                 1.9052                 7.4936

                     61                     62                     63
                      A                      A                      A
 Frequencies --   1507.6413              1509.5911              1660.3101
 Red. masses --      1.0947                 1.0939                 1.0865
 Frc consts  --      1.4660                 1.4688                 1.7646
 IR Inten    --      5.2388                 0.9320                30.8548

                     64                     65                     66
                      A                      A                      A
 Frequencies --   1661.4991              3007.3753              3013.2239
 Red. masses --      1.0891                 1.0598                 1.0622
 Frc consts  --      1.7714                 5.6474                 5.6822
 IR Inten    --     34.3065                28.4632                29.8953

                     67                     68                     69
                      A                      A                      A
 Frequencies --   3015.0388              3018.7857              3021.4048
 Red. masses --      1.0625                 1.0629                 1.0627
 Frc consts  --      5.6906                 5.7072                 5.7160
 IR Inten    --     50.7459                34.4970                43.0426

                     70                     71                     72
                      A                      A                      A
 Frequencies --   3026.3670              3028.7648              3033.8019
 Red. masses --      1.0628                 1.0641                 1.0646
 Frc consts  --      5.7354                 5.7511                 5.7732
 IR Inten    --    136.4123                57.6897                19.8677

                     73                     74                     75
                      A                      A                      A
 Frequencies --   3043.7747              3045.1560              3054.4855
 Red. masses --      1.0973                 1.0976                 1.0993
 Frc consts  --      5.9899                 5.9966                 6.0430
 IR Inten    --     23.2564                13.8729                63.7590

                     76                     77                     78
                      A                      A                      A
 Frequencies --   3058.9396              3064.2927              3072.8262
 Red. masses --      1.1021                 1.1037                 1.1026
 Frc consts  --      6.0757                 6.1059                 6.1339
 IR Inten    --    104.5362                62.0356               112.8523

                     79                     80                     81
                      A                      A                      A
 Frequencies --   3075.2094              3079.5246              3467.5462
 Red. masses --      1.1008                 1.1030                 1.0502
 Frc consts  --      6.1336                 6.1630                 7.4398
 IR Inten    --    143.3906               134.9538                 1.7095

                     82                     83                     84
                      A                      A                      A
 Frequencies --   3479.9347              3544.1684              3562.2617
 Red. masses --      1.0503                 1.0913                 1.0914
 Frc consts  --      7.4936                 8.0767                 8.1601
 IR Inten    --      1.5864                 0.2945                 0.0098

 - Thermochemistry -
 -------------------
 Temperature   298.150 Kelvin.  Pressure   1.00000 Atm.
 Atom     1 has atomic number  7 and mass  14.00307

 Molecular mass:   144.16265 amu.
 Principal axes and moments of inertia in atomic units:
                           1         2         3
     Eigenvalues --   597.839324618.238154680.41691
           X            0.99998  -0.00010   0.00633
           Y            0.00013   0.99999  -0.00511
           Z           -0.00633   0.00511   0.99997
 This molecule is an asymmetric top.
 Rotational symmetry number  1.
 Warning -- assumption of classical behavior for rotation
           may cause significant error
 Rotational temperatures (Kelvin)      0.14488     0.01875     0.01851
 Rotational constants (GHZ):           3.01877     0.39079     0.38559
 Zero-point vibrational energy     741455.9 (Joules/Mol)
                                  177.21222 (Kcal/Mol)
 Warning -- explicit consideration of  17 degrees of freedom as
           vibrations may cause significant error
 Vibrational temperatures:     44.96    55.27   101.89   117.56   148.11
          (Kelvin)            175.34   200.43   332.81   368.40   407.00
                              434.02   442.75   483.07   507.13   598.07
                              671.14   777.99  1064.93  1092.13  1121.57
                             1151.74  1219.41  1228.70  1277.06  1316.43
                             1322.99  1353.27  1427.69  1449.07  1480.45
                             1514.39  1528.69  1557.83  1571.87  1590.16
                             1626.77  1639.09  1701.18  1735.53  1824.81
                             1845.47  1859.44  1895.21  1906.97  1940.22
                             1952.54  1961.40  1991.76  1998.19  2006.47
                             2014.29  2020.47  2028.60  2035.11  2132.52
                             2138.65  2142.99  2152.08  2157.11  2161.85
                             2169.16  2171.96  2388.82  2390.53  4326.94
                             4335.36  4337.97  4343.36  4347.13  4354.27
                             4357.72  4364.96  4379.31  4381.30  4394.72
                             4401.13  4408.83  4421.11  4424.54  4430.75
                             4989.03  5006.85  5099.27  5125.30

 Zero-point correction=                           0.282406 (Hartree/Particle)
 Thermal correction to Energy=                    0.295544
 Thermal correction to Enthalpy=                  0.296488
 Thermal correction to Gibbs Free Energy=         0.241563
 Sum of electronic and zero-point Energies=           -426.144127
 Sum of electronic and thermal Energies=              -426.130989
 Sum of electronic and thermal Enthalpies=            -426.130045
 Sum of electronic and thermal Free Energies=         -426.184970

                     E (Thermal)             CV                S
                      KCal/Mol        Cal/Mol-Kelvin    Cal/Mol-Kelvin
 Total                  185.456             47.262            115.598
 Electronic               0.000              0.000              0.000
 Translational            0.889              2.981             40.808
 Rotational               0.889              2.981             30.936
 Vibrational            183.679             41.301             43.854
 Vibration     1          0.594              1.983              5.748
 Vibration     2          0.594              1.982              5.339
 Vibration     3          0.598              1.968              4.130
 Vibration     4          0.600              1.962              3.849
 Vibration     5          0.605              1.947              3.398
 Vibration     6          0.609              1.931              3.071
 Vibration     7          0.615              1.914              2.813
 Vibration     8          0.653              1.793              1.869
 Vibration     9          0.666              1.753              1.689
 Vibration    10          0.682              1.705              1.516
 Vibration    11          0.694              1.671              1.408
 Vibration    12          0.698              1.659              1.375
 Vibration    13          0.717              1.604              1.232
 Vibration    14          0.729              1.570              1.155
 Vibration    15          0.779              1.436              0.907
 Vibration    16          0.824              1.324              0.748
 Vibration    17          0.896              1.160              0.564

 Optimization completed.
    -- Stationary point found.
 Normal termination of Gaussian 16 at Tue Jul  9 18:58:13 2024.
 Gaussian 16:  EM64L-G16RevA.03 25-Dec-2016

 ----------------------------------------------------------------------
 # TD(NStates=10, Root=1) B3LYP/6-31G** SCRF=(Solvent=water) volume pop
 =NPA density=current Geom=AllCheck Guess=Read
 ----------------------------------------------------------------------

 Structure from the checkpoint file:  "PWGJDPKCLMLPJW-UHFFFAOYSA-N_conf_3_2.chk"
 ----------------------------------
 PWGJDPKCLMLPJW-UHFFFAOYSA-N_conf_3
 ----------------------------------
 Charge =  0 Multiplicity = 1

                         Standard orientation:
 ---------------------------------------------------------------------
 Center     Atomic      Atomic             Coordinates (Angstroms)
 Number     Number       Type             X           Y           Z
 ---------------------------------------------------------------------
      1          7           0       -4.852407   -0.365977    0.240442
      2          6           0       -3.405950   -0.203780    0.455408
      3          6           0       -2.530708   -0.343247   -0.800311
      4          6           0       -1.017372   -0.235778   -0.545250
      5          6           0       -0.550630    1.157646   -0.097041
      6          6           0        0.973172    1.342544    0.018325
      7          6           0        1.660613    0.488651    1.111503
      8          6           0        2.224212   -0.878745    0.663835
      9          6           0        3.678296   -0.847730    0.156952
     10          7           0        3.972261   -0.055661   -1.047018
     11          1           0       -5.017153   -1.267549   -0.206547
     12          1           0       -5.160051    0.324332   -0.443899
     13          1           0       -3.090271   -0.947803    1.199060
     14          1           0       -3.249483    0.777893    0.917440
     15          1           0       -2.746963   -1.317142   -1.261033
     16          1           0       -2.834657    0.418290   -1.533323
     17          1           0       -0.486381   -0.506238   -1.467898
     18          1           0       -0.729027   -0.986520    0.202496
     19          1           0       -0.936124    1.898956   -0.811212
     20          1           0       -1.003619    1.407501    0.871816
     21          1           0        1.160630    2.402898    0.229291
     22          1           0        1.434722    1.144445   -0.957162
     23          1           0        0.942776    0.333399    1.927402
     24          1           0        2.482582    1.066273    1.556236
     25          1           0        1.584182   -1.319668   -0.110669
     26          1           0        2.194706   -1.575008    1.512995
     27          1           0        4.000779   -1.878189   -0.039856
     28          1           0        4.325435   -0.472072    0.960769
     29          1           0        3.356163   -0.351143   -1.803106
     30          1           0        3.742988    0.921439   -0.877296
 ---------------------------------------------------------------------

 SCF Done:  E(RB3LYP) =  -426.426532899     A.U. after    1 cycles

 Excitation energies and oscillator strengths:

 Excited State   1:      Singlet-A      7.3116 eV  169.57 nm  f=0.0312  <S**2>=0.000
      40 -> 42        -0.26437
      41 -> 42         0.62163
      41 -> 44        -0.16844
 This state for optimization and/or second-order correction.
 Total Energy, E(TD-HF/TD-DFT) =  -426.157836115
 Copying the excited state density for this state as the 1-particle RhoCI density.

 Excited State   2:      Singlet-A      7.4653 eV  166.08 nm  f=0.0165  <S**2>=0.000
      40 -> 43         0.61980
      41 -> 43         0.29547

 Excited State   3:      Singlet-A      8.0300 eV  154.40 nm  f=0.0094  <S**2>=0.000
      40 -> 42         0.58972
      40 -> 44         0.18942
      40 -> 45         0.10795
      41 -> 42         0.26335
      41 -> 44         0.12424

 Excited State   4:      Singlet-A      8.2218 eV  150.80 nm  f=0.0184  <S**2>=0.000
      40 -> 43        -0.10336
      40 -> 44         0.10524
      40 -> 45        -0.20168
      41 -> 43         0.22554
      41 -> 44        -0.25977
      41 -> 45         0.51782
      41 -> 47         0.14772

 Excited State   5:      Singlet-A      8.3298 eV  148.84 nm  f=0.0160  <S**2>=0.000
      40 -> 42        -0.17642
      40 -> 43        -0.13238
      41 -> 43         0.34202
      41 -> 44         0.52674
      41 -> 45         0.11160
      41 -> 48         0.10118

 Excited State   6:      Singlet-A      8.3687 eV  148.15 nm  f=0.0048  <S**2>=0.000
      40 -> 42        -0.18778
      40 -> 43         0.14608
      40 -> 44         0.59426
      40 -> 45         0.12836
      41 -> 42        -0.13940
      41 -> 43        -0.12515

 Excited State   7:      Singlet-A      8.4614 eV  146.53 nm  f=0.0102  <S**2>=0.000
      40 -> 43        -0.22174
      40 -> 44         0.13621
      40 -> 45         0.12600
      41 -> 43         0.47221
      41 -> 44        -0.21582
      41 -> 45        -0.30726
      41 -> 46        -0.10928
      41 -> 48        -0.10786
      41 -> 49         0.10573

 Excited State   8:      Singlet-A      8.5445 eV  145.10 nm  f=0.0175  <S**2>=0.000
      40 -> 45         0.40145
      40 -> 46         0.34770
      40 -> 47        -0.18262
      40 -> 48        -0.24409
      40 -> 51         0.12297
      41 -> 45         0.14680
      41 -> 46         0.19712
      41 -> 47        -0.10234
      41 -> 48        -0.11545

 Excited State   9:      Singlet-A      8.6567 eV  143.22 nm  f=0.0408  <S**2>=0.000
      40 -> 44         0.12013
      40 -> 46        -0.16242
      40 -> 48        -0.14377
      41 -> 44        -0.14192
      41 -> 45        -0.14737
      41 -> 46         0.55313
      41 -> 48         0.26585

 Excited State  10:      Singlet-A      8.6957 eV  142.58 nm  f=0.0231  <S**2>=0.000
      40 -> 44        -0.12512
      40 -> 45         0.43262
      40 -> 46        -0.41071
      40 -> 48         0.15966
      41 -> 45         0.15347
      41 -> 48         0.16764

 The electronic state is 1-A.
 Alpha  occ. eigenvalues --  -14.30925 -14.30888 -10.20050 -10.19968 -10.17493
 Alpha  occ. eigenvalues --  -10.17476 -10.17442 -10.17398 -10.17321 -10.17247
 Alpha  occ. eigenvalues --   -0.87347  -0.87320  -0.79841  -0.76319  -0.72263
 Alpha  occ. eigenvalues --   -0.67262  -0.63518  -0.59857  -0.56861  -0.55487
 Alpha  occ. eigenvalues --   -0.48999  -0.48744  -0.45721  -0.44735  -0.44205
 Alpha  occ. eigenvalues --   -0.41933  -0.41377  -0.40953  -0.38743  -0.38130
 Alpha  occ. eigenvalues --   -0.37633  -0.35516  -0.34829  -0.34709  -0.32981
 Alpha  occ. eigenvalues --   -0.31945  -0.31690  -0.30401  -0.30044  -0.23440
 Alpha  occ. eigenvalues --   -0.23246
 Alpha virt. eigenvalues --    0.07983   0.08956   0.10155   0.10724   0.11565
 Alpha virt. eigenvalues --    0.12637   0.13037   0.14354   0.14600   0.15700
 Alpha virt. eigenvalues --    0.17163   0.17894   0.18125   0.18313   0.19363

 Mulliken charges:
               1
     1  N   -0.640505
     2  C   -0.055848
     3  C   -0.188484
     4  C   -0.166767
     5  C   -0.178211
     6  C   -0.130029
     7  C   -0.156821
     8  C   -0.162687
     9  C   -0.114164
    10  N   -0.070508
    11  H    0.247180
    12  H    0.247647
    13  H    0.098315
    14  H    0.103210
    15  H    0.085742
    16  H    0.087737
    17  H    0.068698
    18  H    0.090421
    19  H    0.076257
    20  H    0.091406
    21  H    0.059363
    22  H   -0.013112
    23  H    0.079761
    24  H    0.063207
    25  H    0.099133
    26  H    0.111218
    27  H    0.117351
    28  H    0.120049
    29  H   -0.008756
    30  H    0.039195
 Sum of Mulliken charges =  -0.00000

 Dipole moment (field-independent basis, Debye):
    X=              2.5395    Y=             -1.6940    Z=             -0.3825  Tot=              3.0765
 Quadrupole moment (field-independent basis, Debye-Ang):
   XX=            -67.1334   YY=            -66.7527   ZZ=            -70.1731
   XY=             -3.5276   XZ=             10.8391   YZ=             -0.3564

 Summary of Natural Population Analysis:

                                       Natural Population
                Natural  -----------------------------------------------
    Atom  No    Charge         Core      Valence    Rydberg      Total
 -----------------------------------------------------------------------
      N    1   -0.92451      1.99971     5.90962    0.01519     7.92451
      C    2   -0.26486      1.99936     4.25074    0.01476     6.26486
      C    3   -0.48102      1.99933     4.47025    0.01144     6.48102
      C    4   -0.46771      1.99933     4.45724    0.01114     6.46771
      C    5   -0.46226      1.99933     4.45087    0.01206     6.46226
      C    6   -0.47024      1.99932     4.45637    0.01455     6.47024
      C    7   -0.48092      1.99933     4.46849    0.01311     6.48092
      C    8   -0.45332      1.99926     4.44278    0.01127     6.45332
      C    9   -0.36145      1.99933     4.34293    0.01919     6.36145
      N   10   -0.39487      1.99936     5.37276    0.02275     7.39487
      H   11    0.38192      0.00000     0.61510    0.00298     0.61808
      H   12    0.38246      0.00000     0.61452    0.00301     0.61754
      H   13    0.22110      0.00000     0.77673    0.00217     0.77890
      H   14    0.22290      0.00000     0.77508    0.00203     0.77710
      H   15    0.23239      0.00000     0.76533    0.00228     0.76761
      H   16    0.22619      0.00000     0.77121    0.00259     0.77381
      H   17    0.22193      0.00000     0.76872    0.00935     0.77807
      H   18    0.22496      0.00000     0.77217    0.00288     0.77504
      H   19    0.22406      0.00000     0.77182    0.00412     0.77594
      H   20    0.22652      0.00000     0.77126    0.00222     0.77348
      H   21    0.22333      0.00000     0.76838    0.00829     0.77667
      H   22    0.15124      0.00000     0.81425    0.03451     0.84876
      H   23    0.22844      0.00000     0.76343    0.00812     0.77156
      H   24    0.22089      0.00000     0.76336    0.01575     0.77911
      H   25    0.23256      0.00000     0.75288    0.01456     0.76744
      H   26    0.24571      0.00000     0.74590    0.00839     0.75429
      H   27    0.24485      0.00000     0.73902    0.01613     0.75515
      H   28    0.24140      0.00000     0.74364    0.01495     0.75860
      H   29    0.19057      0.00000     0.72445    0.08497     0.80943
      H   30    0.21774      0.00000     0.70999    0.07228     0.78226
 =======================================================================
   * Total *   -0.00000     19.99365    61.54929    0.45706    82.00000

 1\1\GINC-CN33\SP\RB3LYP TD-FC\6-31G(d,p)\C8H20N2\QDUEZ\09-Jul-2024\0\\
 # TD(NStates=10, Root=1) B3LYP/6-31G** SCRF=(Solvent=water) volume pop
 =NPA density=current Geom=AllCheck Guess=Read\\PWGJDPKCLMLPJW-UHFFFAOY
 SA-N_conf_3\\0,1\N,0,4.8376873767,-0.2387256266,0.6847042814\C,0,3.397
 2069356,-0.4562027666,0.4786107481\C,0,2.5242804431,0.8080785114,0.522
 4743605\C,0,1.0146843929,0.553518465,0.3704499699\C,0,0.5983277842,0.0
 38369959,-1.0157813959\C,0,-0.9180359888,-0.0804757404,-1.2523943105\C
 ,0,-1.6432032634,-1.1273845446,-0.3721327269\C,0,-2.2554610159,-0.6103

 Normal termination of Gaussian 16 at Tue Jul  9 19:28:12 2024.
