 Gaussian 16, Revision A.03,

 -------------------------------------------------------
 # opt=CalcFc B3LYP/6-31G** SCRF=(Solvent=water) scf=xqc
 -------------------------------------------------------

 ----------------------------------
 PWGJDPKCLMLPJW-UHFFFAOYSA-N_conf_0
 ----------------------------------
 Symbolic Z-matrix:
 Charge =  0 Multiplicity = 1

 SCF Done:  E(RB3LYP) =  -426.428422046     A.U. after   11 cycles
 SCF Done:  E(RB3LYP) =  -426.431188246     A.U. after    9 cycles
 SCF Done:  E(RB3LYP) =  -426.431273560     A.U. after    8 cycles
 SCF Done:  E(RB3LYP) =  -426.431280120     A.U. after    8 cycles
 SCF Done:  E(RB3LYP) =  -426.431281258     A.U. after    7 cycles
 SCF Done:  E(RB3LYP) =  -426.431281362     A.U. after    6 cycles
 Optimization completed.
    -- Stationary point found.
 Normal termination of Gaussian 16 at Tue Jul  9 18:32:58 2024.

 ----------------------------------------------------------------------
 # freq B3LYP/6-31G** SCRF=(Solvent=water) volume NMR pop=NPA density=c
 urrent Geom=AllCheck Guess=Read
 ----------------------------------------------------------------------

 Structure from the checkpoint file:  "PWGJDPKCLMLPJW-UHFFFAOYSA-N_conf_0_1.chk"
 ----------------------------------
 PWGJDPKCLMLPJW-UHFFFAOYSA-N_conf_0
 ----------------------------------
 Charge =  0 Multiplicity = 1

 SCF Done:  E(RB3LYP) =  -426.431281362     A.U. after    1 cycles

      1  N    Isotropic =   237.2909   Anisotropy =    40.8735

      2  C    Isotropic =   147.1619   Anisotropy =    25.8324

      3  C    Isotropic =   154.5901   Anisotropy =    26.9702

      4  C    Isotropic =   165.7987   Anisotropy =    19.6348

      5  C    Isotropic =   164.5395   Anisotropy =    26.3235

      6  C    Isotropic =   164.5081   Anisotropy =    16.2988

      7  C    Isotropic =   166.3401   Anisotropy =    15.7937

      8  C    Isotropic =   162.7905   Anisotropy =    28.0010

      9  C    Isotropic =   149.0382   Anisotropy =    35.4181

     10  N    Isotropic =   233.8238   Anisotropy =    32.5987

     11  H    Isotropic =    30.8918   Anisotropy =    11.5276

     12  H    Isotropic =    31.8804   Anisotropy =    13.0631

     13  H    Isotropic =    29.3315   Anisotropy =     7.4558

     14  H    Isotropic =    29.0066   Anisotropy =     8.6771

     15  H    Isotropic =    30.3807   Anisotropy =     6.5666

     16  H    Isotropic =    30.5827   Anisotropy =     5.7923

     17  H    Isotropic =    29.8074   Anisotropy =     6.2301

     18  H    Isotropic =    31.0422   Anisotropy =     6.5547

     19  H    Isotropic =    30.5005   Anisotropy =     7.6483

     20  H    Isotropic =    30.1929   Anisotropy =     5.2241

     21  H    Isotropic =    30.1378   Anisotropy =     7.6131

     22  H    Isotropic =    30.4476   Anisotropy =     8.4555

     23  H    Isotropic =    29.9895   Anisotropy =     6.8746

     24  H    Isotropic =    30.3929   Anisotropy =     8.7580

     25  H    Isotropic =    30.3986   Anisotropy =     7.3952

     26  H    Isotropic =    30.1203   Anisotropy =     4.7462

     27  H    Isotropic =    28.5322   Anisotropy =     6.5097

     28  H    Isotropic =    29.5271   Anisotropy =     5.8187

     29  H    Isotropic =    31.0765   Anisotropy =    15.7049

     30  H    Isotropic =    31.6852   Anisotropy =    11.8532

  Exact polarizability: 134.747  -0.934 127.498   0.830   2.087 121.551
 Approx polarizability: 135.020  -0.778 137.372   0.755   1.924 132.464

                      1                      2                      3
                      A                      A                      A
 Frequencies --     22.4896                40.9015                65.2769
 Red. masses --      4.1082                 2.6367                 2.1668
 Frc consts  --      0.0012                 0.0026                 0.0054
 IR Inten    --      0.1701                 0.6246                 5.3371

                      4                      5                      6
                      A                      A                      A
 Frequencies --     83.8240               112.0785               117.2451
 Red. masses --      2.3823                 2.3458                 3.0139
 Frc consts  --      0.0099                 0.0174                 0.0244
 IR Inten    --      4.3401                 0.8629                 1.6195

                      7                      8                      9
                      A                      A                      A
 Frequencies --    161.2077               211.7484               241.4551
 Red. masses --      1.8795                 2.1444                 1.6297
 Frc consts  --      0.0288                 0.0566                 0.0560
 IR Inten    --      4.3259                11.1345                22.4130

                     10                     11                     12
                      A                      A                      A
 Frequencies --    255.0307               297.0085               310.7770
 Red. masses --      1.4602                 1.5280                 2.1757
 Frc consts  --      0.0560                 0.0794                 0.1238
 IR Inten    --     26.5125                46.5050                13.5281

                     13                     14                     15
                      A                      A                      A
 Frequencies --    327.8395               373.9852               451.3011
 Red. masses --      1.7310                 2.3579                 2.2789
 Frc consts  --      0.1096                 0.1943                 0.2735
 IR Inten    --     25.7806                 5.2461                 4.6318

                     16                     17                     18
                      A                      A                      A
 Frequencies --    487.8925               529.4293               719.3694
 Red. masses --      2.1634                 2.5731                 1.1989
 Frc consts  --      0.3034                 0.4249                 0.3655
 IR Inten    --      9.5258                 1.8047                13.5969

                     19                     20                     21
                      A                      A                      A
 Frequencies --    750.6142               782.3340               825.4366
 Red. masses --      1.1931                 1.5119                 1.3602
 Frc consts  --      0.3961                 0.5452                 0.5460
 IR Inten    --      5.4368                 7.7458                 4.5587

                     22                     23                     24
                      A                      A                      A
 Frequencies --    835.4139               859.4503               888.4093
 Red. masses --      1.7572                 2.0496                 1.9311
 Frc consts  --      0.7226                 0.8920                 0.8980
 IR Inten    --     55.2054                 5.5253                60.7642

                     25                     26                     27
                      A                      A                      A
 Frequencies --    906.8904               919.1381               966.2878
 Red. masses --      1.4951                 1.5410                 1.5693
 Frc consts  --      0.7245                 0.7670                 0.8633
 IR Inten    --    172.6138                59.2217                71.7004

                     28                     29                     30
                      A                      A                      A
 Frequencies --    982.2499              1007.1252              1036.2316
 Red. masses --      1.9040                 1.8694                 1.5924
 Frc consts  --      1.0823                 1.1172                 1.0074
 IR Inten    --     40.6901                 3.8093                24.5693

                     31                     32                     33
                      A                      A                      A
 Frequencies --   1052.8627              1069.9592              1080.3585
 Red. masses --      2.0568                 1.7253                 2.3926
 Frc consts  --      1.3433                 1.1637                 1.6453
 IR Inten    --      8.1329                 1.6480                18.7176

                     34                     35                     36
                      A                      A                      A
 Frequencies --   1089.4854              1109.5302              1128.4203
 Red. masses --      1.7637                 2.3279                 1.4390
 Frc consts  --      1.2334                 1.6885                 1.0796
 IR Inten    --      2.3915                 2.9562                 8.5367

                     37                     38                     39
                      A                      A                      A
 Frequencies --   1164.7767              1166.5104              1231.1795
 Red. masses --      1.6057                 1.5704                 1.4025
 Frc consts  --      1.2835                 1.2590                 1.2526
 IR Inten    --      9.9345                 8.3118                 8.1801

                     40                     41                     42
                      A                      A                      A
 Frequencies --   1234.0530              1282.7425              1292.1969
 Red. masses --      1.4302                 1.3692                 1.3139
 Frc consts  --      1.2833                 1.3273                 1.2927
 IR Inten    --      0.4711                 2.0241                 0.3795

                     43                     44                     45
                      A                      A                      A
 Frequencies --   1312.2821              1324.7959              1335.9627
 Red. masses --      1.2758                 1.1804                 1.0856
 Frc consts  --      1.2944                 1.2206                 1.1415
 IR Inten    --      4.1418                 0.6855                 2.3840

                     46                     47                     48
                      A                      A                      A
 Frequencies --   1344.7074              1365.5021              1375.3154
 Red. masses --      1.0814                 1.3200                 1.4563
 Frc consts  --      1.1521                 1.4501                 1.6230
 IR Inten    --      1.8350                11.0580                 1.2956

                     49                     50                     51
                      A                      A                      A
 Frequencies --   1392.0649              1396.6982              1400.5139
 Red. masses --      1.3743                 1.2520                 1.3715
 Frc consts  --      1.5692                 1.4390                 1.5849
 IR Inten    --     14.9620                 6.2221                 9.9817

                     52                     53                     54
                      A                      A                      A
 Frequencies --   1403.4262              1415.0198              1438.8728
 Red. masses --      1.2826                 1.5573                 1.4828
 Frc consts  --      1.4884                 1.8371                 1.8088
 IR Inten    --      3.1807                 6.0998                10.0041

                     55                     56                     57
                      A                      A                      A
 Frequencies --   1482.9212              1487.3719              1496.3100
 Red. masses --      1.0826                 1.0878                 1.0832
 Frc consts  --      1.4027                 1.4179                 1.4288
 IR Inten    --      0.5730                 1.6746                 4.9176

                     58                     59                     60
                      A                      A                      A
 Frequencies --   1497.2499              1499.1290              1505.1441
 Red. masses --      1.0905                 1.0806                 1.1001
 Frc consts  --      1.4403                 1.4308                 1.4683
 IR Inten    --      0.9641                 7.2505                 2.2538

                     61                     62                     63
                      A                      A                      A
 Frequencies --   1515.1297              1527.0882              1656.0319
 Red. masses --      1.0973                 1.0907                 1.0867
 Frc consts  --      1.4842                 1.4986                 1.7559
 IR Inten    --      3.3839                 1.0869                36.7470

                     64                     65                     66
                      A                      A                      A
 Frequencies --   1659.7426              2972.2788              3006.2934
 Red. masses --      1.0880                 1.0702                 1.0607
 Frc consts  --      1.7658                 5.5705                 5.6480
 IR Inten    --     30.1680               103.6066                10.0203

                     67                     68                     69
                      A                      A                      A
 Frequencies --   3010.9928              3016.9146              3018.9495
 Red. masses --      1.0621                 1.0658                 1.0620
 Frc consts  --      5.6733                 5.7152                 5.7029
 IR Inten    --     31.1873                40.6277                69.8572

                     70                     71                     72
                      A                      A                      A
 Frequencies --   3022.4713              3025.5005              3030.0209
 Red. masses --      1.0628                 1.0650                 1.0663
 Frc consts  --      5.7204                 5.7435                 5.7680
 IR Inten    --     74.9960                53.2809                30.8818

                     73                     74                     75
                      A                      A                      A
 Frequencies --   3041.5424              3041.8557              3049.1747
 Red. masses --      1.0899                 1.0894                 1.0984
 Frc consts  --      5.9403                 5.9390                 6.0168
 IR Inten    --     66.0554                30.2151                 3.1119

                     76                     77                     78
                      A                      A                      A
 Frequencies --   3054.1190              3066.0158              3068.1616
 Red. masses --      1.0993                 1.1032                 1.1036
 Frc consts  --      6.0416                 6.1101                 6.1209
 IR Inten    --     20.7222               210.2234                29.2858

                     79                     80                     81
                      A                      A                      A
 Frequencies --   3069.7500              3071.5622              3472.5016
 Red. masses --      1.1011                 1.1025                 1.0510
 Frc consts  --      6.1135                 6.1286                 7.4672
 IR Inten    --    175.9215               187.4668                 2.1212

                     82                     83                     84
                      A                      A                      A
 Frequencies --   3476.3494              3549.7715              3557.2371
 Red. masses --      1.0504                 1.0911                 1.0912
 Frc consts  --      7.4789                 8.1004                 8.1356
 IR Inten    --      1.5376                 0.2804                 0.1388

 - Thermochemistry -
 -------------------
 Temperature   298.150 Kelvin.  Pressure   1.00000 Atm.
 Atom     1 has atomic number  7 and mass  14.00307

 Molecular mass:   144.16265 amu.
 Principal axes and moments of inertia in atomic units:
                           1         2         3
     Eigenvalues --   881.909574189.119214501.37451
           X            1.00000   0.00040   0.00079
           Y           -0.00041   0.99986   0.01699
           Z           -0.00079  -0.01699   0.99986
 This molecule is an asymmetric top.
 Rotational symmetry number  1.
 Warning -- assumption of classical behavior for rotation
           may cause significant error
 Rotational temperatures (Kelvin)      0.09821     0.02068     0.01924
 Rotational constants (GHZ):           2.04640     0.43082     0.40093
 Zero-point vibrational energy     741225.7 (Joules/Mol)
                                  177.15719 (Kcal/Mol)
 Warning -- explicit consideration of  17 degrees of freedom as
           vibrations may cause significant error
 Vibrational temperatures:     32.36    58.85    93.92   120.60   161.26
          (Kelvin)            168.69   231.94   304.66   347.40   366.93
                              427.33   447.14   471.69   538.08   649.32
                              701.97   761.73  1035.01  1079.97  1125.60
                             1187.62  1201.97  1236.56  1278.22  1304.81
                             1322.43  1390.27  1413.24  1449.03  1490.91
                             1514.83  1539.43  1554.39  1567.53  1596.37
                             1623.55  1675.85  1678.35  1771.39  1775.53
                             1845.58  1859.18  1888.08  1906.09  1922.15
                             1934.73  1964.65  1978.77  2002.87  2009.54
                             2015.03  2019.22  2035.90  2070.22  2133.59
                             2140.00  2152.86  2154.21  2156.91  2165.57
                             2179.93  2197.14  2382.66  2388.00  4276.45
                             4325.39  4332.15  4340.67  4343.59  4348.66
                             4353.02  4359.52  4376.10  4376.55  4387.08
                             4394.20  4411.31  4414.40  4416.69  4419.29
                             4996.16  5001.69  5107.33  5118.07

 Zero-point correction=                           0.282318 (Hartree/Particle)
 Thermal correction to Energy=                    0.295465
 Thermal correction to Enthalpy=                  0.296410
 Thermal correction to Gibbs Free Energy=         0.241116
 Sum of electronic and zero-point Energies=           -426.148963
 Sum of electronic and thermal Energies=              -426.135816
 Sum of electronic and thermal Enthalpies=            -426.134872
 Sum of electronic and thermal Free Energies=         -426.190165

                     E (Thermal)             CV                S
                      KCal/Mol        Cal/Mol-Kelvin    Cal/Mol-Kelvin
 Total                  185.407             47.202            116.374
 Electronic               0.000              0.000              0.000
 Translational            0.889              2.981             40.808
 Rotational               0.889              2.981             31.187
 Vibrational            183.630             41.241             44.379
 Vibration     1          0.593              1.985              6.401
 Vibration     2          0.594              1.981              5.215
 Vibration     3          0.597              1.971              4.291
 Vibration     4          0.601              1.960              3.799
 Vibration     5          0.607              1.939              3.233
 Vibration     6          0.608              1.935              3.145
 Vibration     7          0.622              1.890              2.536
 Vibration     8          0.643              1.823              2.029
 Vibration     9          0.658              1.777              1.792
 Vibration    10          0.665              1.754              1.696
 Vibration    11          0.691              1.679              1.434
 Vibration    12          0.700              1.653              1.358
 Vibration    13          0.711              1.620              1.271
 Vibration    14          0.745              1.525              1.063
 Vibration    15          0.810              1.358              0.792
 Vibration    16          0.844              1.277              0.689
 Vibration    17          0.884              1.185              0.588

 Optimization completed.
    -- Stationary point found.
 Normal termination of Gaussian 16 at Tue Jul  9 19:01:40 2024.
 Gaussian 16:  EM64L-G16RevA.03 25-Dec-2016

 ----------------------------------------------------------------------
 # TD(NStates=10, Root=1) B3LYP/6-31G** SCRF=(Solvent=water) volume pop
 =NPA density=current Geom=AllCheck Guess=Read
 ----------------------------------------------------------------------

 Structure from the checkpoint file:  "PWGJDPKCLMLPJW-UHFFFAOYSA-N_conf_0_2.chk"
 ----------------------------------
 PWGJDPKCLMLPJW-UHFFFAOYSA-N_conf_0
 ----------------------------------
 Charge =  0 Multiplicity = 1

                         Standard orientation:
 ---------------------------------------------------------------------
 Center     Atomic      Atomic             Coordinates (Angstroms)
 Number     Number       Type             X           Y           Z
 ---------------------------------------------------------------------
      1          7           0       -3.740548   -1.487137    0.746250
      2          6           0       -3.874780   -0.346685   -0.173172
      3          6           0       -2.600494    0.105753   -0.907207
      4          6           0       -1.494861    0.638072    0.012937
      5          6           0       -0.242021    1.089766   -0.750077
      6          6           0        0.855903    1.714272    0.128249
      7          6           0        1.471011    0.789558    1.196670
      8          6           0        2.147313   -0.490063    0.676455
      9          6           0        3.359948   -0.248789   -0.225715
     10          7           0        4.016137   -1.524679   -0.561737
     11          1           0       -3.074083   -1.253778    1.479825
     12          1           0       -3.322502   -2.269713    0.244069
     13          1           0       -4.281186    0.496319    0.401166
     14          1           0       -4.637490   -0.608737   -0.916918
     15          1           0       -2.874952    0.885707   -1.631651
     16          1           0       -2.212148   -0.737310   -1.497560
     17          1           0       -1.223045   -0.137868    0.739938
     18          1           0       -1.887049    1.483026    0.598079
     19          1           0       -0.538065    1.828100   -1.507659
     20          1           0        0.165930    0.237267   -1.309965
     21          1           0        1.650680    2.096176   -0.524689
     22          1           0        0.440243    2.594722    0.637249
     23          1           0        0.695275    0.502818    1.917302
     24          1           0        2.208085    1.369045    1.769197
     25          1           0        2.476968   -1.092356    1.532185
     26          1           0        1.416704   -1.107648    0.135461
     27          1           0        3.054836    0.326254   -1.115316
     28          1           0        4.089570    0.372666    0.310045
     29          1           0        4.813284   -1.336491   -1.167485
     30          1           0        3.377708   -2.076787   -1.133696
 ---------------------------------------------------------------------

 SCF Done:  E(RB3LYP) =  -426.431281362     A.U. after    1 cycles

 Excitation energies and oscillator strengths:

 Excited State   1:      Singlet-A      7.3599 eV  168.46 nm  f=0.0249  <S**2>=0.000
      40 -> 42        -0.33936
      40 -> 43         0.25946
      40 -> 44        -0.11196
      41 -> 42         0.43298
      41 -> 43        -0.28834
      41 -> 44         0.14409
 This state for optimization and/or second-order correction.
 Total Energy, E(TD-HF/TD-DFT) =  -426.160809099
 Copying the excited state density for this state as the 1-particle RhoCI density.

 Excited State   2:      Singlet-A      7.4051 eV  167.43 nm  f=0.0180  <S**2>=0.000
      40 -> 42         0.31729
      40 -> 43         0.37270
      40 -> 44         0.20784
      41 -> 42         0.24820
      41 -> 43         0.33715
      41 -> 44         0.16726

 Excited State   3:      Singlet-A      7.8903 eV  157.13 nm  f=0.0116  <S**2>=0.000
      40 -> 42         0.40944
      40 -> 43        -0.17681
      40 -> 44        -0.27579
      41 -> 42         0.35616
      41 -> 43        -0.12760
      41 -> 44        -0.25134

 Excited State   4:      Singlet-A      8.0784 eV  153.48 nm  f=0.0013  <S**2>=0.000
      40 -> 42        -0.30197
      40 -> 43        -0.30254
      40 -> 44         0.15450
      41 -> 42         0.32198
      41 -> 43         0.37411
      41 -> 44        -0.17985

 Excited State   5:      Singlet-A      8.3149 eV  149.11 nm  f=0.0218  <S**2>=0.000
      40 -> 42         0.13850
      40 -> 43        -0.33032
      40 -> 44         0.38498
      41 -> 42         0.12271
      41 -> 43        -0.26144
      41 -> 44         0.33365

 Excited State   6:      Singlet-A      8.4143 eV  147.35 nm  f=0.0297  <S**2>=0.000
      40 -> 43        -0.15037
      40 -> 44        -0.32562
      40 -> 45        -0.22840
      41 -> 43         0.18573
      41 -> 44         0.37209
      41 -> 45         0.28370
      41 -> 48        -0.11147

 Excited State   7:      Singlet-A      8.5802 eV  144.50 nm  f=0.0376  <S**2>=0.000
      40 -> 43         0.11396
      40 -> 44         0.21643
      40 -> 45        -0.35399
      41 -> 43        -0.14039
      41 -> 44        -0.24647
      41 -> 45         0.44070
      41 -> 47        -0.10317

 Excited State   8:      Singlet-A      8.6788 eV  142.86 nm  f=0.0212  <S**2>=0.000
      40 -> 43        -0.11247
      40 -> 46         0.45000
      40 -> 47         0.13674
      40 -> 48        -0.14619
      40 -> 50        -0.12063
      41 -> 46         0.40246
      41 -> 47         0.11330
      41 -> 48        -0.11979
      41 -> 50        -0.10227

 Excited State   9:      Singlet-A      8.7720 eV  141.34 nm  f=0.0340  <S**2>=0.000
      40 -> 44        -0.13121
      40 -> 46        -0.30313
      40 -> 47         0.23405
      40 -> 48        -0.11677
      40 -> 49        -0.14124
      41 -> 44         0.15073
      41 -> 46         0.33994
      41 -> 47        -0.29551
      41 -> 48         0.15008
      41 -> 49         0.16576

 Excited State  10:      Singlet-A      8.8723 eV  139.74 nm  f=0.0354  <S**2>=0.000
      40 -> 45         0.47487
      40 -> 47         0.17673
      40 -> 48         0.15347
      41 -> 45         0.38524
      41 -> 47         0.16268
      41 -> 48         0.14196

 The electronic state is 1-A.
 Alpha  occ. eigenvalues --  -14.30922 -14.30792 -10.20078 -10.19949 -10.17508
 Alpha  occ. eigenvalues --  -10.17415 -10.17398 -10.17379 -10.17330 -10.17317
 Alpha  occ. eigenvalues --   -0.87370  -0.87226  -0.80025  -0.76527  -0.72126
 Alpha  occ. eigenvalues --   -0.67424  -0.63546  -0.59631  -0.57355  -0.54431
 Alpha  occ. eigenvalues --   -0.48515  -0.47669  -0.46760  -0.45506  -0.44743
 Alpha  occ. eigenvalues --   -0.42248  -0.41386  -0.41049  -0.39315  -0.37946
 Alpha  occ. eigenvalues --   -0.37832  -0.35326  -0.34812  -0.33652  -0.32488
 Alpha  occ. eigenvalues --   -0.32341  -0.31144  -0.30480  -0.30347  -0.23521
 Alpha  occ. eigenvalues --   -0.23466
 Alpha virt. eigenvalues --    0.07653   0.08684   0.09655   0.11299   0.11834
 Alpha virt. eigenvalues --    0.12570   0.13552   0.15161   0.15385   0.16140
 Alpha virt. eigenvalues --    0.17020   0.17466   0.18436   0.18835   0.19152

 Mulliken charges:
               1
     1  N   -0.070427
     2  C   -0.111436
     3  C   -0.166013
     4  C   -0.097752
     5  C   -0.186287
     6  C   -0.181113
     7  C   -0.172799
     8  C   -0.164937
     9  C   -0.049874
    10  N   -0.646029
    11  H   -0.002657
    12  H    0.037245
    13  H    0.116698
    14  H    0.130140
    15  H    0.121454
    16  H    0.068532
    17  H   -0.029050
    18  H    0.061796
    19  H    0.084684
    20  H    0.084557
    21  H    0.090074
    22  H    0.085394
    23  H    0.077869
    24  H    0.083217
    25  H    0.084631
    26  H    0.075112
    27  H    0.084874
    28  H    0.096083
    29  H    0.248934
    30  H    0.247083
 Sum of Mulliken charges =  -0.00000

 Dipole moment (field-independent basis, Debye):
    X=             -3.1783    Y=              0.9825    Z=             -2.5918  Tot=              4.2171
 Quadrupole moment (field-independent basis, Debye-Ang):
   XX=            -57.7959   YY=            -70.1946   ZZ=            -67.1592
   XY=              4.4548   XZ=             -4.2786   YZ=              2.4363

 Summary of Natural Population Analysis:

                                       Natural Population
                Natural  -----------------------------------------------
    Atom  No    Charge         Core      Valence    Rydberg      Total
 -----------------------------------------------------------------------
      N    1   -0.38040      1.99935     5.35811    0.02294     7.38040
      C    2   -0.35770      1.99934     4.33965    0.01871     6.35770
      C    3   -0.45438      1.99927     4.44363    0.01149     6.45438
      C    4   -0.48159      1.99931     4.46707    0.01521     6.48159
      C    5   -0.46995      1.99933     4.45797    0.01265     6.46995
      C    6   -0.46030      1.99933     4.44965    0.01131     6.46030
      C    7   -0.46607      1.99933     4.45536    0.01138     6.46607
      C    8   -0.47850      1.99933     4.46679    0.01238     6.47850
      C    9   -0.26203      1.99935     4.24927    0.01340     6.26203
      N   10   -0.92864      1.99969     5.91405    0.01491     7.92864
      H   11    0.18540      0.00000     0.73434    0.08026     0.81460
      H   12    0.22318      0.00000     0.69774    0.07908     0.77682
      H   13    0.23861      0.00000     0.74476    0.01663     0.76139
      H   14    0.25443      0.00000     0.73304    0.01253     0.74557
      H   15    0.25437      0.00000     0.73999    0.00564     0.74563
      H   16    0.21119      0.00000     0.76579    0.02303     0.78881
      H   17    0.13311      0.00000     0.82276    0.04413     0.86689
      H   18    0.21704      0.00000     0.77238    0.01058     0.78296
      H   19    0.23369      0.00000     0.76371    0.00260     0.76631
      H   20    0.22106      0.00000     0.77393    0.00501     0.77894
      H   21    0.23430      0.00000     0.76370    0.00200     0.76570
      H   22    0.23378      0.00000     0.76381    0.00240     0.76622
      H   23    0.22614      0.00000     0.76778    0.00608     0.77386
      H   24    0.23254      0.00000     0.76496    0.00249     0.76746
      H   25    0.23505      0.00000     0.76150    0.00345     0.76495
      H   26    0.21347      0.00000     0.77832    0.00822     0.78653
      H   27    0.20162      0.00000     0.79571    0.00267     0.79838
      H   28    0.22101      0.00000     0.77668    0.00231     0.77899
      H   29    0.38813      0.00000     0.60910    0.00277     0.61187
      H   30    0.38135      0.00000     0.61544    0.00321     0.61865
 =======================================================================
   * Total *   -0.00011     19.99363    61.54701    0.45947    82.00011

 1\1\GINC-CN33\SP\RB3LYP TD-FC\6-31G(d,p)\C8H20N2\QDUEZ\09-Jul-2024\0\\
 # TD(NStates=10, Root=1) B3LYP/6-31G** SCRF=(Solvent=water) volume pop
 =NPA density=current Geom=AllCheck Guess=Read\\PWGJDPKCLMLPJW-UHFFFAOY
 SA-N_conf_0\\0,1\N,0,-3.8784831296,0.7742756837,1.259859556\C,0,-3.891
 096221,-0.2979065016,0.2527595611\C,0,-2.5564188746,-1.0161697189,-0.0
 119073637\C,0,-1.4592195382,-0.1182452086,-0.5970028347\C,0,-0.1446523
 783,-0.8662412898,-0.8582355289\C,0,0.9531850951,-0.0226634033,-1.5290
 773321\C,0,1.4532909784,1.1937252247,-0.7257903561\C,0,2.0616488283,0.

 Normal termination of Gaussian 16 at Tue Jul  9 19:30:37 2024.
