 Gaussian 16, Revision A.03,

 -------------------------------------------------------
 # opt=CalcFc B3LYP/6-31G** SCRF=(Solvent=water) scf=xqc
 -------------------------------------------------------

 ----------------------------------
 PWGJDPKCLMLPJW-UHFFFAOYSA-N_conf_1
 ----------------------------------
 Symbolic Z-matrix:
 Charge =  0 Multiplicity = 1

 SCF Done:  E(RB3LYP) =  -426.429378178     A.U. after   10 cycles
 SCF Done:  E(RB3LYP) =  -426.431790585     A.U. after    9 cycles
 SCF Done:  E(RB3LYP) =  -426.431876052     A.U. after    9 cycles
 SCF Done:  E(RB3LYP) =  -426.431878545     A.U. after    7 cycles
 SCF Done:  E(RB3LYP) =  -426.431878970     A.U. after    7 cycles
 Optimization completed.
    -- Stationary point found.
 Normal termination of Gaussian 16 at Tue Jul  9 18:27:28 2024.

 ----------------------------------------------------------------------
 # freq B3LYP/6-31G** SCRF=(Solvent=water) volume NMR pop=NPA density=c
 urrent Geom=AllCheck Guess=Read
 ----------------------------------------------------------------------

 Structure from the checkpoint file:  "PWGJDPKCLMLPJW-UHFFFAOYSA-N_conf_1_1.chk"
 ----------------------------------
 PWGJDPKCLMLPJW-UHFFFAOYSA-N_conf_1
 ----------------------------------
 Charge =  0 Multiplicity = 1

 SCF Done:  E(RB3LYP) =  -426.431878970     A.U. after    1 cycles

      1  N    Isotropic =   237.0705   Anisotropy =    40.4509

      2  C    Isotropic =   146.8312   Anisotropy =    25.8054

      3  C    Isotropic =   156.8368   Anisotropy =    27.0670

      4  C    Isotropic =   163.0034   Anisotropy =    22.4472

      5  C    Isotropic =   161.3479   Anisotropy =    20.7202

      6  C    Isotropic =   160.9009   Anisotropy =    21.3401

      7  C    Isotropic =   162.4675   Anisotropy =    21.5553

      8  C    Isotropic =   159.1630   Anisotropy =    23.0765

      9  C    Isotropic =   147.3398   Anisotropy =    22.9877

     10  N    Isotropic =   234.9946   Anisotropy =    27.0896

     11  H    Isotropic =    31.9202   Anisotropy =    13.0310

     12  H    Isotropic =    30.9506   Anisotropy =    11.4477

     13  H    Isotropic =    29.0081   Anisotropy =     8.3534

     14  H    Isotropic =    29.3700   Anisotropy =     7.3995

     15  H    Isotropic =    30.3019   Anisotropy =     4.5587

     16  H    Isotropic =    30.6157   Anisotropy =     6.4103

     17  H    Isotropic =    30.1508   Anisotropy =     5.5050

     18  H    Isotropic =    30.5225   Anisotropy =     7.9208

     19  H    Isotropic =    30.1258   Anisotropy =     5.4659

     20  H    Isotropic =    30.4438   Anisotropy =     6.8801

     21  H    Isotropic =    30.4666   Anisotropy =     6.9752

     22  H    Isotropic =    30.1774   Anisotropy =     5.3646

     23  H    Isotropic =    30.2308   Anisotropy =     5.3939

     24  H    Isotropic =    30.5198   Anisotropy =     7.7112

     25  H    Isotropic =    30.6646   Anisotropy =     6.5163

     26  H    Isotropic =    30.0725   Anisotropy =     5.0530

     27  H    Isotropic =    28.8850   Anisotropy =     7.5776

     28  H    Isotropic =    29.1606   Anisotropy =     7.7870

     29  H    Isotropic =    31.3010   Anisotropy =    11.1195

     30  H    Isotropic =    31.1165   Anisotropy =    15.8541

  Exact polarizability: 139.390  -0.164 124.929   1.927   0.151 120.682
 Approx polarizability: 135.017  -0.786 136.754   2.571   0.519 133.439

                      1                      2                      3
                      A                      A                      A
 Frequencies --     27.8740                34.4040                50.5236
 Red. masses --      3.5262                 3.6811                 2.9356
 Frc consts  --      0.0016                 0.0026                 0.0044
 IR Inten    --      0.2875                 0.6679                 1.0380

                      4                      5                      6
                      A                      A                      A
 Frequencies --     99.6710               116.2334               135.0372
 Red. masses --      3.0591                 2.4164                 2.3925
 Frc consts  --      0.0179                 0.0192                 0.0257
 IR Inten    --      2.2039                 2.8378                 4.3618

                      7                      8                      9
                      A                      A                      A
 Frequencies --    148.3870               218.7622               236.3306
 Red. masses --      2.1265                 1.4537                 1.5125
 Frc consts  --      0.0276                 0.0410                 0.0498
 IR Inten    --      2.5091                33.4543                24.5905

                     10                     11                     12
                      A                      A                      A
 Frequencies --    261.8370               269.3922               300.7350
 Red. masses --      2.0725                 1.7548                 1.7229
 Frc consts  --      0.0837                 0.0750                 0.0918
 IR Inten    --      9.5230                11.0525                33.8655

                     13                     14                     15
                      A                      A                      A
 Frequencies --    324.6932               345.1839               428.3803
 Red. masses --      1.3432                 2.6669                 2.5171
 Frc consts  --      0.0834                 0.1872                 0.2722
 IR Inten    --     46.8973                 3.3551                12.6461

                     16                     17                     18
                      A                      A                      A
 Frequencies --    504.2306               572.2018               745.9699
 Red. masses --      2.3075                 1.9690                 1.3894
 Frc consts  --      0.3457                 0.3798                 0.4555
 IR Inten    --      5.2759                 3.5774                 8.8745

                     19                     20                     21
                      A                      A                      A
 Frequencies --    759.0372               772.8272               812.5452
 Red. masses --      1.2577                 1.3479                 1.5862
 Frc consts  --      0.4269                 0.4743                 0.6170
 IR Inten    --      4.6179                 2.6998                10.3581

                     22                     23                     24
                      A                      A                      A
 Frequencies --    828.6758               873.9531               876.8196
 Red. masses --      1.9146                 1.7340                 1.6938
 Frc consts  --      0.7747                 0.7803                 0.7672
 IR Inten    --     12.8774                34.5911                25.2804

                     25                     26                     27
                      A                      A                      A
 Frequencies --    899.9636               919.8238               946.6765
 Red. masses --      1.6187                 1.4897                 1.8335
 Frc consts  --      0.7724                 0.7426                 0.9681
 IR Inten    --    205.3122               125.0999                 9.8828

                     28                     29                     30
                      A                      A                      A
 Frequencies --    970.3527              1011.2469              1033.0487
 Red. masses --      1.5734                 1.7763                 1.6230
 Frc consts  --      0.8729                 1.0702                 1.0205
 IR Inten    --     52.9430                 7.7056                20.9160

                     31                     32                     33
                      A                      A                      A
 Frequencies --   1049.5480              1077.6700              1090.9302
 Red. masses --      2.4973                 2.2330                 2.3369
 Frc consts  --      1.6208                 1.5280                 1.6386
 IR Inten    --      9.3829                 8.4113                 8.9480

                     34                     35                     36
                      A                      A                      A
 Frequencies --   1105.0302              1115.1908              1121.3924
 Red. masses --      2.1035                 1.5171                 1.4648
 Frc consts  --      1.5134                 1.1116                 1.0853
 IR Inten    --      4.2429                 5.0698                 1.1022

                     37                     38                     39
                      A                      A                      A
 Frequencies --   1165.8964              1179.1627              1199.5328
 Red. masses --      1.5398                 1.6618                 1.3355
 Frc consts  --      1.2332                 1.3614                 1.1322
 IR Inten    --     13.9041                 8.1313                 5.1506

                     40                     41                     42
                      A                      A                      A
 Frequencies --   1240.6236              1288.4105              1302.3201
 Red. masses --      1.4748                 1.3650                 1.3016
 Frc consts  --      1.3374                 1.3351                 1.3006
 IR Inten    --      8.0692                 0.4127                 1.2605

                     43                     44                     45
                      A                      A                      A
 Frequencies --   1317.0743              1328.2757              1340.3009
 Red. masses --      1.2751                 1.1875                 1.2956
 Frc consts  --      1.3032                 1.2344                 1.3713
 IR Inten    --      5.9114                 0.1879                 0.0121

                     46                     47                     48
                      A                      A                      A
 Frequencies --   1345.6682              1352.9584              1364.4515
 Red. masses --      1.1889                 1.1600                 1.1287
 Frc consts  --      1.2685                 1.2510                 1.2381
 IR Inten    --      7.4300                 3.5493                 2.5251

                     49                     50                     51
                      A                      A                      A
 Frequencies --   1392.1022              1397.2430              1407.2132
 Red. masses --      1.3176                 1.1872                 1.5265
 Frc consts  --      1.5045                 1.3656                 1.7811
 IR Inten    --     26.4179                 1.2835                 2.3242

                     52                     53                     54
                      A                      A                      A
 Frequencies --   1408.2411              1416.0862              1431.6359
 Red. masses --      1.4845                 1.4725                 1.4274
 Frc consts  --      1.7346                 1.7398                 1.7237
 IR Inten    --      2.4082                 2.4716                25.0171

                     55                     56                     57
                      A                      A                      A
 Frequencies --   1479.7216              1482.9578              1489.8231
 Red. masses --      1.0816                 1.0892                 1.0900
 Frc consts  --      1.3953                 1.4112                 1.4255
 IR Inten    --      0.5132                 1.8002                 0.6322

                     58                     59                     60
                      A                      A                      A
 Frequencies --   1497.2608              1504.3619              1505.4743
 Red. masses --      1.0907                 1.0966                 1.0959
 Frc consts  --      1.4407                 1.4622                 1.4634
 IR Inten    --      0.4829                 4.8344                 3.4040

                     61                     62                     63
                      A                      A                      A
 Frequencies --   1508.0559              1516.3447              1659.1824
 Red. masses --      1.0980                 1.0871                 1.0864
 Frc consts  --      1.4712                 1.4726                 1.7621
 IR Inten    --      2.9300                 2.5843                44.9906

                     64                     65                     66
                      A                      A                      A
 Frequencies --   1659.5266              2950.4376              3007.2023
 Red. masses --      1.0881                 1.0728                 1.0595
 Frc consts  --      1.7655                 5.5023                 5.6453
 IR Inten    --     30.1616               123.2152                 3.7756

                     67                     68                     69
                      A                      A                      A
 Frequencies --   3010.0538              3014.3887              3019.1348
 Red. masses --      1.0608                 1.0617                 1.0608
 Frc consts  --      5.6626                 5.6840                 5.6968
 IR Inten    --     31.7358                85.2757                61.4561

                     70                     71                     72
                      A                      A                      A
 Frequencies --   3020.6053              3025.1171              3026.9769
 Red. masses --      1.0617                 1.0640                 1.0618
 Frc consts  --      5.7076                 5.7369                 5.7319
 IR Inten    --     82.4090                34.6373                54.6134

                     73                     74                     75
                      A                      A                      A
 Frequencies --   3040.9772              3043.0891              3047.6661
 Red. masses --      1.0986                 1.0993                 1.0998
 Frc consts  --      5.9859                 5.9976                 6.0186
 IR Inten    --     15.1729                27.0391                 8.9430

                     76                     77                     78
                      A                      A                      A
 Frequencies --   3060.4416              3060.9245              3068.8874
 Red. masses --      1.1002                 1.0914                 1.1039
 Frc consts  --      6.0716                 6.0249                 6.1255
 IR Inten    --    126.6507                26.0857               175.5520

                     79                     80                     81
                      A                      A                      A
 Frequencies --   3070.4726              3077.9239              3475.6237
 Red. masses --      1.1046                 1.1016                 1.0504
 Frc consts  --      6.1355                 6.1487                 7.4760
 IR Inten    --    144.4076               143.2862                 1.4024

                     82                     83                     84
                      A                      A                      A
 Frequencies --   3485.3951              3556.3986              3559.8868
 Red. masses --      1.0509                 1.0912                 1.0912
 Frc consts  --      7.5219                 8.1317                 8.1477
 IR Inten    --      1.0662                 0.0911                 0.0203

 - Thermochemistry -
 -------------------
 Temperature   298.150 Kelvin.  Pressure   1.00000 Atm.
 Atom     1 has atomic number  7 and mass  14.00307

 Molecular mass:   144.16265 amu.
 Principal axes and moments of inertia in atomic units:
                           1         2         3
     Eigenvalues --   423.139345474.940595506.93609
           X            0.99999   0.00022  -0.00351
           Y           -0.00031   0.99967  -0.02565
           Z            0.00350   0.02565   0.99966
 This molecule is an asymmetric top.
 Rotational symmetry number  1.
 Rotational temperatures (Kelvin)      0.20469     0.01582     0.01573
 Rotational constants (GHZ):           4.26512     0.32964     0.32772
 Zero-point vibrational energy     741003.4 (Joules/Mol)
                                  177.10405 (Kcal/Mol)
 Warning -- explicit consideration of  17 degrees of freedom as
           vibrations may cause significant error
 Vibrational temperatures:     40.10    49.50    72.69   143.40   167.23
          (Kelvin)            194.29   213.50   314.75   340.03   376.73
                              387.60   432.69   467.16   496.64   616.34
                              725.48   823.27  1073.28  1092.09  1111.93
                             1169.07  1192.28  1257.42  1261.55  1294.85
                             1323.42  1362.06  1396.12  1454.96  1486.33
                             1510.07  1550.53  1569.61  1589.89  1604.51
                             1613.43  1677.46  1696.55  1725.86  1784.98
                             1853.74  1873.75  1894.98  1911.09  1928.39
                             1936.12  1946.61  1963.14  2002.92  2010.32
                             2024.67  2026.14  2037.43  2059.80  2128.99
                             2133.65  2143.52  2154.22  2164.44  2166.04
                             2169.76  2181.68  2387.19  2387.69  4245.02
                             4326.69  4330.80  4337.03  4343.86  4345.98
                             4352.47  4355.14  4375.29  4378.33  4384.91
                             4403.29  4403.99  4415.44  4417.73  4428.45
                             5000.65  5014.71  5116.86  5121.88

 Zero-point correction=                           0.282233 (Hartree/Particle)
 Thermal correction to Energy=                    0.295414
 Thermal correction to Enthalpy=                  0.296358
 Thermal correction to Gibbs Free Energy=         0.241129
 Sum of electronic and zero-point Energies=           -426.149646
 Sum of electronic and thermal Energies=              -426.136465
 Sum of electronic and thermal Enthalpies=            -426.135521
 Sum of electronic and thermal Free Energies=         -426.190750

                     E (Thermal)             CV                S
                      KCal/Mol        Cal/Mol-Kelvin    Cal/Mol-Kelvin
 Total                  185.375             47.239            116.240
 Electronic               0.000              0.000              0.000
 Translational            0.889              2.981             40.808
 Rotational               0.889              2.981             30.923
 Vibrational            183.598             41.277             44.509
 Vibration     1          0.593              1.984              5.975
 Vibration     2          0.594              1.983              5.558
 Vibration     3          0.595              1.977              4.797
 Vibration     4          0.604              1.949              3.461
 Vibration     5          0.608              1.936              3.162
 Vibration     6          0.613              1.918              2.873
 Vibration     7          0.618              1.904              2.693
 Vibration     8          0.647              1.812              1.969
 Vibration     9          0.655              1.785              1.830
 Vibration    10          0.669              1.743              1.649
 Vibration    11          0.674              1.729              1.600
 Vibration    12          0.693              1.672              1.413
 Vibration    13          0.709              1.626              1.286
 Vibration    14          0.724              1.585              1.188
 Vibration    15          0.790              1.408              0.864
 Vibration    16          0.860              1.241              0.648
 Vibration    17          0.928              1.091              0.500

 Optimization completed.
    -- Stationary point found.
 Normal termination of Gaussian 16 at Tue Jul  9 18:54:51 2024.
 Gaussian 16:  EM64L-G16RevA.03 25-Dec-2016

 ----------------------------------------------------------------------
 # TD(NStates=10, Root=1) B3LYP/6-31G** SCRF=(Solvent=water) volume pop
 =NPA density=current Geom=AllCheck Guess=Read
 ----------------------------------------------------------------------

 Structure from the checkpoint file:  "PWGJDPKCLMLPJW-UHFFFAOYSA-N_conf_1_2.chk"
 ----------------------------------
 PWGJDPKCLMLPJW-UHFFFAOYSA-N_conf_1
 ----------------------------------
 Charge =  0 Multiplicity = 1

                         Standard orientation:
 ---------------------------------------------------------------------
 Center     Atomic      Atomic             Coordinates (Angstroms)
 Number     Number       Type             X           Y           Z
 ---------------------------------------------------------------------
      1          7           0        4.765499   -0.429692    0.533149
      2          6           0        4.101008    0.674883   -0.175868
      3          6           0        2.565437    0.728788   -0.089862
      4          6           0        1.861975   -0.467542   -0.745365
      5          6           0        0.325978   -0.390638   -0.742383
      6          6           0       -0.311667   -0.473642    0.652972
      7          6           0       -1.847468   -0.554491    0.646118
      8          6           0       -2.549589    0.707804    0.123889
      9          6           0       -4.075494    0.670466    0.258875
     10          7           0       -4.673522   -0.374227   -0.590547
     11          1           0        4.466453   -0.424350    1.507816
     12          1           0        4.437681   -1.317868    0.158196
     13          1           0        4.511440    1.613931    0.215616
     14          1           0        4.403412    0.621535   -1.230190
     15          1           0        2.276474    0.807126    0.966993
     16          1           0        2.222496    1.655559   -0.572101
     17          1           0        2.171669   -1.396184   -0.245942
     18          1           0        2.208826   -0.549509   -1.784973
     19          1           0        0.014904    0.536060   -1.242504
     20          1           0       -0.067649   -1.213647   -1.354976
     21          1           0        0.084635   -1.361209    1.165505
     22          1           0       -0.004601    0.389614    1.258199
     23          1           0       -2.153095   -1.422922    0.046267
     24          1           0       -2.194068   -0.750079    1.670609
     25          1           0       -2.176012    1.579256    0.679151
     26          1           0       -2.298647    0.872225   -0.930993
     27          1           0       -4.336986    0.566757    1.327013
     28          1           0       -4.483940    1.633847   -0.068508
     29          1           0       -4.460220   -1.288062   -0.195064
     30          1           0       -5.687699   -0.298405   -0.538577
 ---------------------------------------------------------------------

 SCF Done:  E(RB3LYP) =  -426.431878970     A.U. after    1 cycles

 Excitation energies and oscillator strengths:

 Excited State   1:      Singlet-A      7.4045 eV  167.45 nm  f=0.0173  <S**2>=0.000
      40 -> 42        -0.47921
      40 -> 43         0.49538
      40 -> 44        -0.12323
 This state for optimization and/or second-order correction.
 Total Energy, E(TD-HF/TD-DFT) =  -426.159769692
 Copying the excited state density for this state as the 1-particle RhoCI density.

 Excited State   2:      Singlet-A      7.4149 eV  167.21 nm  f=0.0234  <S**2>=0.000
      41 -> 42         0.53245
      41 -> 43         0.43360
      41 -> 44        -0.13560

 Excited State   3:      Singlet-A      8.3398 eV  148.67 nm  f=0.0090  <S**2>=0.000
      41 -> 42        -0.41245
      41 -> 43         0.55082
      41 -> 44         0.13729

 Excited State   4:      Singlet-A      8.3489 eV  148.50 nm  f=0.0024  <S**2>=0.000
      40 -> 42         0.47863
      40 -> 43         0.49911
      40 -> 44         0.13209

 Excited State   5:      Singlet-A      8.5014 eV  145.84 nm  f=0.0342  <S**2>=0.000
      41 -> 42         0.14656
      41 -> 44         0.56414
      41 -> 45         0.26741
      41 -> 46        -0.15824
      41 -> 47        -0.22100

 Excited State   6:      Singlet-A      8.5222 eV  145.48 nm  f=0.0355  <S**2>=0.000
      40 -> 42        -0.15685
      40 -> 44         0.58562
      40 -> 45         0.25006
      40 -> 47         0.22925

 Excited State   7:      Singlet-A      8.5558 eV  144.91 nm  f=0.0624  <S**2>=0.000
      41 -> 42        -0.12930
      41 -> 44        -0.29612
      41 -> 45         0.51232
      41 -> 47        -0.26507
      41 -> 48        -0.16179
      41 -> 50         0.11290

 Excited State   8:      Singlet-A      8.6006 eV  144.16 nm  f=0.0058  <S**2>=0.000
      40 -> 42         0.10359
      40 -> 44        -0.30048
      40 -> 45         0.49645
      40 -> 47         0.31134
      40 -> 48         0.13177
      40 -> 49         0.12776
      40 -> 51         0.11016

 Excited State   9:      Singlet-A      8.7097 eV  142.35 nm  f=0.0451  <S**2>=0.000
      41 -> 44         0.18052
      41 -> 46         0.62109
      41 -> 48        -0.21050
      41 -> 49         0.12462

 Excited State  10:      Singlet-A      8.9107 eV  139.14 nm  f=0.0644  <S**2>=0.000
      40 -> 46         0.63739
      40 -> 48         0.21558
      40 -> 49        -0.15099

 The electronic state is 1-A.
 Alpha  occ. eigenvalues --  -14.30914 -14.30796 -10.20073 -10.20058 -10.17484
 Alpha  occ. eigenvalues --  -10.17484 -10.17399 -10.17378 -10.17278 -10.17257
 Alpha  occ. eigenvalues --   -0.87363  -0.87271  -0.79965  -0.76547  -0.72104
 Alpha  occ. eigenvalues --   -0.68013  -0.62778  -0.59712  -0.57115  -0.54866
 Alpha  occ. eigenvalues --   -0.48588  -0.48049  -0.47031  -0.45215  -0.44200
 Alpha  occ. eigenvalues --   -0.42610  -0.41331  -0.40756  -0.38941  -0.38858
 Alpha  occ. eigenvalues --   -0.37249  -0.35445  -0.34701  -0.33944  -0.33033
 Alpha  occ. eigenvalues --   -0.32211  -0.30729  -0.30480  -0.30337  -0.23583
 Alpha  occ. eigenvalues --   -0.23487
 Alpha virt. eigenvalues --    0.08406   0.08580   0.10355   0.11340   0.11620
 Alpha virt. eigenvalues --    0.12780   0.13665   0.14121   0.15732   0.15928
 Alpha virt. eigenvalues --    0.16544   0.16867   0.17546   0.18515   0.18930

 Mulliken charges:
               1
     1  N   -0.636168
     2  C   -0.065983
     3  C   -0.177024
     4  C   -0.177867
     5  C   -0.175736
     6  C   -0.186225
     7  C   -0.127642
     8  C   -0.170633
     9  C   -0.094784
    10  N   -0.041477
    11  H    0.248051
    12  H    0.251217
    13  H    0.097606
    14  H    0.099613
    15  H    0.093139
    16  H    0.087721
    17  H    0.085075
    18  H    0.086493
    19  H    0.091769
    20  H    0.085863
    21  H    0.083882
    22  H    0.091112
    23  H    0.019052
    24  H    0.053112
    25  H    0.088193
    26  H    0.111988
    27  H    0.119075
    28  H    0.084457
    29  H   -0.007722
    30  H   -0.016155
 Sum of Mulliken charges =  -0.00000

 Dipole moment (field-independent basis, Debye):
    X=             -1.9105    Y=              1.1320    Z=              0.1111  Tot=              2.2234
 Quadrupole moment (field-independent basis, Debye-Ang):
   XX=            -87.2012   YY=            -67.4990   ZZ=            -65.5710
   XY=             -5.1434   XZ=             -0.1672   YZ=              0.5913

 Summary of Natural Population Analysis:

                                       Natural Population
                Natural  -----------------------------------------------
    Atom  No    Charge         Core      Valence    Rydberg      Total
 -----------------------------------------------------------------------
      N    1   -0.92690      1.99971     5.91210    0.01510     7.92690
      C    2   -0.26523      1.99936     4.24984    0.01603     6.26523
      C    3   -0.48431      1.99932     4.47502    0.00997     6.48431
      C    4   -0.46480      1.99934     4.45402    0.01144     6.46480
      C    5   -0.45978      1.99934     4.44930    0.01115     6.45978
      C    6   -0.46814      1.99933     4.45601    0.01280     6.46814
      C    7   -0.47981      1.99933     4.46285    0.01763     6.47981
      C    8   -0.47656      1.99931     4.46602    0.01124     6.47656
      C    9   -0.35658      1.99930     4.33933    0.01795     6.35658
      N   10   -0.37414      1.99933     5.34952    0.02529     7.37414
      H   11    0.38252      0.00000     0.61448    0.00301     0.61748
      H   12    0.38401      0.00000     0.61331    0.00269     0.61599
      H   13    0.22822      0.00000     0.76983    0.00195     0.77178
      H   14    0.22239      0.00000     0.77542    0.00219     0.77761
      H   15    0.22724      0.00000     0.77023    0.00252     0.77276
      H   16    0.23347      0.00000     0.76410    0.00243     0.76653
      H   17    0.22419      0.00000     0.77286    0.00295     0.77581
      H   18    0.23353      0.00000     0.76425    0.00223     0.76647
      H   19    0.22722      0.00000     0.77066    0.00212     0.77278
      H   20    0.23325      0.00000     0.76437    0.00238     0.76675
      H   21    0.23194      0.00000     0.76558    0.00248     0.76806
      H   22    0.22720      0.00000     0.77054    0.00227     0.77280
      H   23    0.17992      0.00000     0.79528    0.02480     0.82008
      H   24    0.21728      0.00000     0.77034    0.01238     0.78272
      H   25    0.22747      0.00000     0.76461    0.00792     0.77253
      H   26    0.24284      0.00000     0.75257    0.00459     0.75716
      H   27    0.25549      0.00000     0.71449    0.03002     0.74451
      H   28    0.21645      0.00000     0.76029    0.02327     0.78355
      H   29    0.18402      0.00000     0.73410    0.08189     0.81598
      H   30    0.17563      0.00000     0.74060    0.08377     0.82437
 =======================================================================
   * Total *   -0.00199     19.99365    61.56191    0.44643    82.00199

 1\1\GINC-CN33\SP\RB3LYP TD-FC\6-31G(d,p)\C8H20N2\QDUEZ\09-Jul-2024\0\\
 # TD(NStates=10, Root=1) B3LYP/6-31G** SCRF=(Solvent=water) volume pop
 =NPA density=current Geom=AllCheck Guess=Read\\PWGJDPKCLMLPJW-UHFFFAOY
 SA-N_conf_1\\0,1\N,0,4.7988550097,-0.0707039226,-0.7126092604\C,0,4.13
 10603163,-0.2261205466,0.5890190696\C,0,2.5965634301,-0.3413047212,0.5
 708150978\C,0,1.883083658,0.916291843,0.055894183\C,0,0.3474346868,0.8
 508780851,0.1080012965\C,0,-0.2770397926,-0.1835960461,-0.8408872944\C
 ,0,-1.8130823317,-0.1416436445,-0.9047748277\C,0,-2.5162148167,-0.5418

 Normal termination of Gaussian 16 at Tue Jul  9 19:24:08 2024.
