 Gaussian 16, Revision A.03,

 -------------------------------------------------------
 # opt=CalcFc B3LYP/6-31G** SCRF=(Solvent=water) scf=xqc
 -------------------------------------------------------

 ----------------------------------
 PWGJDPKCLMLPJW-UHFFFAOYSA-N_conf_2
 ----------------------------------
 Symbolic Z-matrix:
 Charge =  0 Multiplicity = 1

 SCF Done:  E(RB3LYP) =  -426.427454705     A.U. after   11 cycles
 SCF Done:  E(RB3LYP) =  -426.430766523     A.U. after    9 cycles
 SCF Done:  E(RB3LYP) =  -426.430903502     A.U. after    9 cycles
 SCF Done:  E(RB3LYP) =  -426.430918675     A.U. after    8 cycles
 SCF Done:  E(RB3LYP) =  -426.430936919     A.U. after    8 cycles
 SCF Done:  E(RB3LYP) =  -426.430944253     A.U. after    8 cycles
 SCF Done:  E(RB3LYP) =  -426.430946930     A.U. after    7 cycles
 SCF Done:  E(RB3LYP) =  -426.430949923     A.U. after    7 cycles
 SCF Done:  E(RB3LYP) =  -426.430951752     A.U. after    7 cycles
 SCF Done:  E(RB3LYP) =  -426.430961944     A.U. after    9 cycles
 SCF Done:  E(RB3LYP) =  -426.430978305     A.U. after   10 cycles
 SCF Done:  E(RB3LYP) =  -426.431093959     A.U. after    8 cycles
 SCF Done:  E(RB3LYP) =  -426.430257394     A.U. after    9 cycles
 SCF Done:  E(RB3LYP) =  -426.431119620     A.U. after    8 cycles
 SCF Done:  E(RB3LYP) =  -426.431126601     A.U. after    7 cycles
 SCF Done:  E(RB3LYP) =  -426.431129095     A.U. after    7 cycles
 SCF Done:  E(RB3LYP) =  -426.431129773     A.U. after    7 cycles
 SCF Done:  E(RB3LYP) =  -426.431129940     A.U. after    6 cycles
 Optimization completed.
    -- Stationary point found.
 Normal termination of Gaussian 16 at Tue Jul  9 19:44:56 2024.

 ----------------------------------------------------------------------
 # freq B3LYP/6-31G** SCRF=(Solvent=water) volume NMR pop=NPA density=c
 urrent Geom=AllCheck Guess=Read
 ----------------------------------------------------------------------

 Structure from the checkpoint file:  "PWGJDPKCLMLPJW-UHFFFAOYSA-N_conf_2_1.chk"
 ----------------------------------
 PWGJDPKCLMLPJW-UHFFFAOYSA-N_conf_2
 ----------------------------------
 Charge =  0 Multiplicity = 1

 SCF Done:  E(RB3LYP) =  -426.431129940     A.U. after    1 cycles

      1  N    Isotropic =   235.0924   Anisotropy =    27.0542

      2  C    Isotropic =   147.7668   Anisotropy =    23.5456

      3  C    Isotropic =   157.2500   Anisotropy =    23.3905

      4  C    Isotropic =   161.8574   Anisotropy =    25.5174

      5  C    Isotropic =   157.2918   Anisotropy =    34.1468

      6  C    Isotropic =   155.3638   Anisotropy =    36.5827

      7  C    Isotropic =   159.6110   Anisotropy =    26.1935

      8  C    Isotropic =   157.2392   Anisotropy =    13.2347

      9  C    Isotropic =   144.4024   Anisotropy =    23.8659

     10  N    Isotropic =   231.0519   Anisotropy =    24.6158

     11  H    Isotropic =    31.2691   Anisotropy =    11.2549

     12  H    Isotropic =    31.0948   Anisotropy =    15.7127

     13  H    Isotropic =    28.8552   Anisotropy =     7.3812

     14  H    Isotropic =    29.1819   Anisotropy =     7.9157

     15  H    Isotropic =    30.3216   Anisotropy =     6.3713

     16  H    Isotropic =    30.4085   Anisotropy =     6.4827

     17  H    Isotropic =    30.7300   Anisotropy =     5.1628

     18  H    Isotropic =    30.2241   Anisotropy =     5.5003

     19  H    Isotropic =    30.4245   Anisotropy =     4.5311

     20  H    Isotropic =    30.5683   Anisotropy =     4.7453

     21  H    Isotropic =    30.4221   Anisotropy =     4.3825

     22  H    Isotropic =    30.0389   Anisotropy =     7.2257

     23  H    Isotropic =    30.4126   Anisotropy =     4.6794

     24  H    Isotropic =    30.1565   Anisotropy =     6.6777

     25  H    Isotropic =    30.2116   Anisotropy =     8.5905

     26  H    Isotropic =    30.5445   Anisotropy =     5.7800

     27  H    Isotropic =    28.9818   Anisotropy =     8.7591

     28  H    Isotropic =    29.2253   Anisotropy =     7.3140

     29  H    Isotropic =    30.9850   Anisotropy =    10.9479

     30  H    Isotropic =    31.7386   Anisotropy =    11.4617

  Exact polarizability: 141.403  -3.369 121.014   1.316   2.102 122.766
 Approx polarizability: 136.795  -1.827 131.810   0.572   1.342 135.988

                      1                      2                      3
                      A                      A                      A
 Frequencies --     27.9160                43.3620                61.7150
 Red. masses --      2.9151                 3.1640                 2.6858
 Frc consts  --      0.0013                 0.0035                 0.0060
 IR Inten    --      2.4068                 1.8483                 0.4049

                      4                      5                      6
                      A                      A                      A
 Frequencies --     78.7558               109.4392               122.4027
 Red. masses --      2.3075                 2.2930                 2.2201
 Frc consts  --      0.0084                 0.0162                 0.0196
 IR Inten    --      0.6775                 2.2542                 1.7656

                      7                      8                      9
                      A                      A                      A
 Frequencies --    149.8488               162.5164               215.4230
 Red. masses --      2.4307                 2.1616                 1.5020
 Frc consts  --      0.0322                 0.0336                 0.0411
 IR Inten    --      2.7993                 7.5679                36.6419

                     10                     11                     12
                      A                      A                      A
 Frequencies --    260.6273               270.9815               299.3490
 Red. masses --      2.7192                 1.5834                 1.7109
 Frc consts  --      0.1088                 0.0685                 0.0903
 IR Inten    --      4.9441                27.4139                36.6911

                     13                     14                     15
                      A                      A                      A
 Frequencies --    335.9330               389.8522               420.0155
 Red. masses --      1.2952                 2.6401                 2.8407
 Frc consts  --      0.0861                 0.2364                 0.2953
 IR Inten    --     48.0781                 8.3382                 3.1013

                     16                     17                     18
                      A                      A                      A
 Frequencies --    478.1612               519.3648               730.4608
 Red. masses --      1.8867                 2.2023                 1.0920
 Frc consts  --      0.2542                 0.3500                 0.3433
 IR Inten    --      4.4154                 6.6695                 5.1982

                     19                     20                     21
                      A                      A                      A
 Frequencies --    743.5422               789.0651               818.9778
 Red. masses --      1.1863                 1.6832                 1.6105
 Frc consts  --      0.3864                 0.6175                 0.6364
 IR Inten    --      0.3621                 3.5896                12.5437

                     22                     23                     24
                      A                      A                      A
 Frequencies --    845.3879               856.8483               893.4763
 Red. masses --      1.4659                 1.6389                 1.5210
 Frc consts  --      0.6173                 0.7089                 0.7154
 IR Inten    --     23.6631                70.4612               135.4087

                     25                     26                     27
                      A                      A                      A
 Frequencies --    908.3985               913.1260               974.3210
 Red. masses --      1.4356                 1.8779                 2.0809
 Frc consts  --      0.6979                 0.9226                 1.1638
 IR Inten    --    122.8103                61.2434                55.9467

                     28                     29                     30
                      A                      A                      A
 Frequencies --    990.0990              1006.4072              1035.5932
 Red. masses --      2.0610                 1.5527                 2.3109
 Frc consts  --      1.1904                 0.9266                 1.4602
 IR Inten    --      7.1855                44.0615                 1.6042

                     31                     32                     33
                      A                      A                      A
 Frequencies --   1051.0185              1066.2462              1087.2982
 Red. masses --      2.4115                 2.0698                 1.3076
 Frc consts  --      1.5695                 1.3864                 0.9108
 IR Inten    --      1.6033                 1.4196                 3.3212

                     34                     35                     36
                      A                      A                      A
 Frequencies --   1091.7914              1108.8509              1123.2203
 Red. masses --      2.4347                 2.2630                 1.7510
 Frc consts  --      1.7099                 1.6394                 1.3016
 IR Inten    --     14.3125                16.2761                 8.2763

                     37                     38                     39
                      A                      A                      A
 Frequencies --   1170.3356              1183.0436              1219.2759
 Red. masses --      1.7820                 1.3485                 1.5232
 Frc consts  --      1.4381                 1.1120                 1.3341
 IR Inten    --     13.4967                 4.7638                 0.8175

                     40                     41                     42
                      A                      A                      A
 Frequencies --   1254.4592              1276.0346              1285.9976
 Red. masses --      1.3306                 1.3505                 1.2489
 Frc consts  --      1.2337                 1.2956                 1.2169
 IR Inten    --      6.6790                 5.0606                 2.9392

                     43                     44                     45
                      A                      A                      A
 Frequencies --   1317.5353              1329.6473              1333.3266
 Red. masses --      1.2321                 1.2781                 1.0556
 Frc consts  --      1.2601                 1.3313                 1.1057
 IR Inten    --      0.6213                 0.1388                 0.3547

                     46                     47                     48
                      A                      A                      A
 Frequencies --   1338.8036              1355.0106              1376.1568
 Red. masses --      1.1318                 1.1315                 1.3622
 Frc consts  --      1.1953                 1.2240                 1.5200
 IR Inten    --      0.5878                 5.3256                 2.6754

                     49                     50                     51
                      A                      A                      A
 Frequencies --   1382.2806              1400.6208              1403.3083
 Red. masses --      1.4154                 1.2898                 1.2430
 Frc consts  --      1.5933                 1.4907                 1.4422
 IR Inten    --      1.5424                12.4142                 3.7137

                     52                     53                     54
                      A                      A                      A
 Frequencies --   1408.4641              1413.4616              1431.4795
 Red. masses --      1.4550                 1.6439                 1.4350
 Frc consts  --      1.7006                 1.9351                 1.7325
 IR Inten    --      6.9011                 1.9510                23.4272

                     55                     56                     57
                      A                      A                      A
 Frequencies --   1481.1085              1487.0756              1487.2301
 Red. masses --      1.0860                 1.0777                 1.0888
 Frc consts  --      1.4036                 1.4041                 1.4190
 IR Inten    --      3.2015                 1.4580                 2.7060

                     58                     59                     60
                      A                      A                      A
 Frequencies --   1492.7725              1497.0259              1507.4079
 Red. masses --      1.0926                 1.0886                 1.0972
 Frc consts  --      1.4345                 1.4373                 1.4689
 IR Inten    --      1.6596                 0.7492                 0.0443

                     61                     62                     63
                      A                      A                      A
 Frequencies --   1515.9901              1519.7359              1659.4428
 Red. masses --      1.0873                 1.0993                 1.0864
 Frc consts  --      1.4722                 1.4958                 1.7626
 IR Inten    --      2.0335                 4.6114                45.1179

                     64                     65                     66
                      A                      A                      A
 Frequencies --   1660.9349              2951.7344              3006.6598
 Red. masses --      1.0889                 1.0728                 1.0596
 Frc consts  --      1.7698                 5.5072                 5.6436
 IR Inten    --     34.9866               121.7883                 4.1330

                     67                     68                     69
                      A                      A                      A
 Frequencies --   3008.7620              3010.6618              3011.7759
 Red. masses --      1.0600                 1.0610                 1.0637
 Frc consts  --      5.6535                 5.6660                 5.6850
 IR Inten    --     36.9167                15.2255                19.4379

                     70                     71                     72
                      A                      A                      A
 Frequencies --   3020.1800              3022.6946              3023.6737
 Red. masses --      1.0656                 1.0611                 1.0624
 Frc consts  --      5.7267                 5.7123                 5.7229
 IR Inten    --     64.3205               145.8915                64.3028

                     73                     74                     75
                      A                      A                      A
 Frequencies --   3034.2849              3042.9465              3049.6053
 Red. masses --      1.0970                 1.0973                 1.1025
 Frc consts  --      5.9505                 5.9866                 6.0412
 IR Inten    --      3.5892                36.6560                16.1291

                     76                     77                     78
                      A                      A                      A
 Frequencies --   3052.1214              3061.3437              3064.9554
 Red. masses --      1.0976                 1.0889                 1.1052
 Frc consts  --      6.0241                 6.0128                 6.1170
 IR Inten    --     82.1226                90.4700               101.9159

                     79                     80                     81
                      A                      A                      A
 Frequencies --   3068.0079              3073.8993              3482.3092
 Red. masses --      1.1041                 1.1034                 1.0505
 Frc consts  --      6.1230                 6.1425                 7.5056
 IR Inten    --     10.1834               323.8296                 1.5172

                     82                     83                     84
                      A                      A                      A
 Frequencies --   3485.4586              3559.8525              3566.5207
 Red. masses --      1.0509                 1.0912                 1.0912
 Frc consts  --      7.5222                 8.1475                 8.1778
 IR Inten    --      1.1040                 0.0200                 0.0244

 - Thermochemistry -
 -------------------
 Temperature   298.150 Kelvin.  Pressure   1.00000 Atm.
 Atom     1 has atomic number  7 and mass  14.00307

 Molecular mass:   144.16265 amu.
 Principal axes and moments of inertia in atomic units:
                           1         2         3
     Eigenvalues --   562.839225398.532605585.99270
           X            0.99997  -0.00635   0.00352
           Y            0.00620   0.99918   0.03998
           Z           -0.00377  -0.03996   0.99919
 This molecule is an asymmetric top.
 Rotational symmetry number  1.
 Warning -- assumption of classical behavior for rotation
           may cause significant error
 Rotational temperatures (Kelvin)      0.15389     0.01604     0.01551
 Rotational constants (GHZ):           3.20650     0.33430     0.32308
 Zero-point vibrational energy     740280.3 (Joules/Mol)
                                  176.93125 (Kcal/Mol)
 Warning -- explicit consideration of  17 degrees of freedom as
           vibrations may cause significant error
 Vibrational temperatures:     40.16    62.39    88.79   113.31   157.46
          (Kelvin)            176.11   215.60   233.82   309.95   374.98
                              389.88   430.70   483.33   560.91   604.31
                              687.97   747.25  1050.97  1069.79  1135.29
                             1178.33  1216.32  1232.81  1285.51  1306.98
                             1313.78  1401.83  1424.53  1448.00  1489.99
                             1512.18  1534.09  1564.38  1570.84  1595.39
                             1616.06  1683.85  1702.14  1754.27  1804.89
                             1835.93  1850.26  1895.64  1913.07  1918.36
                             1926.24  1949.56  1979.98  1988.79  2015.18
                             2019.05  2026.47  2033.66  2059.58  2130.98
                             2139.57  2139.79  2147.77  2153.89  2168.82
                             2181.17  2186.56  2387.57  2389.71  4246.89
                             4325.91  4328.94  4331.67  4333.27  4345.37
                             4348.98  4350.39  4365.66  4378.12  4387.70
                             4391.32  4404.59  4409.79  4414.18  4422.66
                             5010.27  5014.80  5121.83  5131.43

 Zero-point correction=                           0.281958 (Hartree/Particle)
 Thermal correction to Energy=                    0.295288
 Thermal correction to Enthalpy=                  0.296232
 Thermal correction to Gibbs Free Energy=         0.240599
 Sum of electronic and zero-point Energies=           -426.149172
 Sum of electronic and thermal Energies=              -426.135842
 Sum of electronic and thermal Enthalpies=            -426.134898
 Sum of electronic and thermal Free Energies=         -426.190531

                     E (Thermal)             CV                S
                      KCal/Mol        Cal/Mol-Kelvin    Cal/Mol-Kelvin
 Total                  185.296             47.405            117.090
 Electronic               0.000              0.000              0.000
 Translational            0.889              2.981             40.808
 Rotational               0.889              2.981             31.207
 Vibrational            183.519             41.443             45.074
 Vibration     1          0.593              1.984              5.972
 Vibration     2          0.595              1.980              5.099
 Vibration     3          0.597              1.973              4.402
 Vibration     4          0.600              1.963              3.922
 Vibration     5          0.606              1.942              3.279
 Vibration     6          0.610              1.930              3.062
 Vibration     7          0.618              1.903              2.674
 Vibration     8          0.623              1.888              2.520
 Vibration     9          0.645              1.818              1.997
 Vibration    10          0.669              1.745              1.658
 Vibration    11          0.675              1.727              1.590
 Vibration    12          0.692              1.675              1.421
 Vibration    13          0.717              1.604              1.231
 Vibration    14          0.758              1.492              1.001
 Vibration    15          0.783              1.427              0.892
 Vibration    16          0.835              1.298              0.715
 Vibration    17          0.874              1.207              0.611

 Optimization completed.
    -- Stationary point found.
 Normal termination of Gaussian 16 at Tue Jul  9 19:58:57 2024.
 Gaussian 16:  EM64L-G16RevA.03 25-Dec-2016

 ----------------------------------------------------------------------
 # TD(NStates=10, Root=1) B3LYP/6-31G** SCRF=(Solvent=water) volume pop
 =NPA density=current Geom=AllCheck Guess=Read
 ----------------------------------------------------------------------

 Structure from the checkpoint file:  "PWGJDPKCLMLPJW-UHFFFAOYSA-N_conf_2_2.chk"
 ----------------------------------
 PWGJDPKCLMLPJW-UHFFFAOYSA-N_conf_2
 ----------------------------------
 Charge =  0 Multiplicity = 1

                         Standard orientation:
 ---------------------------------------------------------------------
 Center     Atomic      Atomic             Coordinates (Angstroms)
 Number     Number       Type             X           Y           Z
 ---------------------------------------------------------------------
      1          7           0       -4.593608    0.412864    0.994703
      2          6           0       -4.214233    0.424744   -0.428731
      3          6           0       -2.974546   -0.435275   -0.694700
      4          6           0       -1.692242    0.080318   -0.027938
      5          6           0       -0.454897   -0.762041   -0.363303
      6          6           0        0.831089   -0.256244    0.301238
      7          6           0        2.059190   -1.122268   -0.020411
      8          6           0        3.377464   -0.676107    0.645487
      9          6           0        4.209781    0.362903   -0.129194
     10          7           0        3.630276    1.696151   -0.350602
     11          1           0       -3.914697    0.955478    1.525342
     12          1           0       -5.471873    0.916536    1.104145
     13          1           0       -4.035654    1.440392   -0.824210
     14          1           0       -5.057502    0.014784   -0.996955
     15          1           0       -3.176719   -1.460113   -0.355932
     16          1           0       -2.818025   -0.486332   -1.780744
     17          1           0       -1.517171    1.121678   -0.335338
     18          1           0       -1.822913    0.098344    1.062699
     19          1           0       -0.316396   -0.783237   -1.453789
     20          1           0       -0.633117   -1.803813   -0.060198
     21          1           0        0.690573   -0.231015    1.391337
     22          1           0        1.008202    0.783426   -0.001139
     23          1           0        2.200379   -1.170166   -1.110324
     24          1           0        1.836158   -2.150317    0.294152
     25          1           0        4.019793   -1.556139    0.785003
     26          1           0        3.169322   -0.293799    1.655369
     27          1           0        5.161973    0.501524    0.399124
     28          1           0        4.464290   -0.049853   -1.114296
     29          1           0        2.795470    1.615394   -0.926540
     30          1           0        3.311590    2.077946    0.538897
 ---------------------------------------------------------------------

 SCF Done:  E(RB3LYP) =  -426.431129940     A.U. after    1 cycles

 Excitation energies and oscillator strengths:

 Excited State   1:      Singlet-A      7.2608 eV  170.76 nm  f=0.0322  <S**2>=0.000
      41 -> 42         0.68042
      41 -> 43        -0.10623
      41 -> 45         0.10100
 This state for optimization and/or second-order correction.
 Total Energy, E(TD-HF/TD-DFT) =  -426.164298778
 Copying the excited state density for this state as the 1-particle RhoCI density.

 Excited State   2:      Singlet-A      7.3989 eV  167.57 nm  f=0.0176  <S**2>=0.000
      40 -> 42         0.10708
      40 -> 43         0.68193
      40 -> 44        -0.11868

 Excited State   3:      Singlet-A      8.1058 eV  152.96 nm  f=0.0019  <S**2>=0.000
      40 -> 42         0.69128

 Excited State   4:      Singlet-A      8.1992 eV  151.22 nm  f=0.0088  <S**2>=0.000
      41 -> 42         0.12503
      41 -> 43         0.60004
      41 -> 44         0.32080

 Excited State   5:      Singlet-A      8.3595 eV  148.31 nm  f=0.0310  <S**2>=0.000
      41 -> 43        -0.34308
      41 -> 44         0.52500
      41 -> 45         0.19889
      41 -> 47        -0.20898

 Excited State   6:      Singlet-A      8.4984 eV  145.89 nm  f=0.0366  <S**2>=0.000
      41 -> 45         0.52664
      41 -> 46         0.36037
      41 -> 47         0.22251
      41 -> 48         0.12366

 Excited State   7:      Singlet-A      8.5636 eV  144.78 nm  f=0.0224  <S**2>=0.000
      40 -> 44        -0.31258
      40 -> 46         0.49495
      40 -> 47        -0.33109

 Excited State   8:      Singlet-A      8.6866 eV  142.73 nm  f=0.0050  <S**2>=0.000
      40 -> 43         0.10767
      40 -> 44         0.43066
      40 -> 45        -0.26160
      40 -> 46         0.19516
      40 -> 49        -0.16690
      41 -> 44         0.13778
      41 -> 45        -0.21266
      41 -> 46         0.25388
      41 -> 47         0.13526

 Excited State   9:      Singlet-A      8.6955 eV  142.58 nm  f=0.0216  <S**2>=0.000
      40 -> 44        -0.28098
      40 -> 45         0.18559
      40 -> 46        -0.16115
      41 -> 44         0.16587
      41 -> 45        -0.31159
      41 -> 46         0.37467
      41 -> 47         0.20894
      41 -> 49         0.14602

 Excited State  10:      Singlet-A      8.9053 eV  139.23 nm  f=0.0330  <S**2>=0.000
      40 -> 44         0.22728
      40 -> 45         0.57731
      40 -> 46         0.16871
      40 -> 48        -0.26930

 The electronic state is 1-A.
 Alpha  occ. eigenvalues --  -14.30931 -14.30797 -10.20096 -10.20065 -10.17508
 Alpha  occ. eigenvalues --  -10.17455 -10.17396 -10.17373 -10.17371 -10.17339
 Alpha  occ. eigenvalues --   -0.87327  -0.87274  -0.79897  -0.76632  -0.72533
 Alpha  occ. eigenvalues --   -0.67833  -0.62930  -0.58482  -0.56903  -0.56128
 Alpha  occ. eigenvalues --   -0.48919  -0.48034  -0.47459  -0.45489  -0.43980
 Alpha  occ. eigenvalues --   -0.42534  -0.41215  -0.40418  -0.38927  -0.38453
 Alpha  occ. eigenvalues --   -0.37141  -0.35090  -0.34365  -0.34295  -0.32500
 Alpha  occ. eigenvalues --   -0.32423  -0.31716  -0.31634  -0.29652  -0.23587
 Alpha  occ. eigenvalues --   -0.23268
 Alpha virt. eigenvalues --    0.07804   0.08491   0.10701   0.11174   0.11625
 Alpha virt. eigenvalues --    0.12788   0.14074   0.14375   0.15054   0.15882
 Alpha virt. eigenvalues --    0.16769   0.17577   0.17926   0.18562   0.19301

 Mulliken charges:
               1
     1  N   -0.641703
     2  C   -0.060086
     3  C   -0.165390
     4  C   -0.177757
     5  C   -0.172546
     6  C   -0.120339
     7  C   -0.146631
     8  C   -0.170586
     9  C   -0.112466
    10  N   -0.083346
    11  H    0.251491
    12  H    0.251412
    13  H    0.079998
    14  H    0.097700
    15  H    0.088504
    16  H    0.088175
    17  H    0.083566
    18  H    0.088340
    19  H    0.071869
    20  H    0.083723
    21  H    0.055964
    22  H   -0.032288
    23  H    0.052657
    24  H    0.071994
    25  H    0.119753
    26  H    0.099181
    27  H    0.129041
    28  H    0.115227
    29  H   -0.022356
    30  H    0.076901
 Sum of Mulliken charges =  -0.00000

 Dipole moment (field-independent basis, Debye):
    X=              3.2246    Y=              1.3364    Z=              0.2639  Tot=              3.5006
 Quadrupole moment (field-independent basis, Debye-Ang):
   XX=            -51.1290   YY=            -67.0208   ZZ=            -68.7921
   XY=             -7.2840   XZ=              3.3486   YZ=              2.3115

 Summary of Natural Population Analysis:

                                       Natural Population
                Natural  -----------------------------------------------
    Atom  No    Charge         Core      Valence    Rydberg      Total
 -----------------------------------------------------------------------
      N    1   -0.93336      1.99968     5.91870    0.01497     7.93336
      C    2   -0.26066      1.99935     4.24764    0.01367     6.26066
      C    3   -0.47080      1.99933     4.46018    0.01130     6.47080
      C    4   -0.46363      1.99934     4.45313    0.01117     6.46363
      C    5   -0.45822      1.99934     4.44681    0.01208     6.45822
      C    6   -0.46821      1.99932     4.45545    0.01344     6.46821
      C    7   -0.47186      1.99933     4.45920    0.01333     6.47186
      C    8   -0.45246      1.99927     4.44215    0.01104     6.45246
      C    9   -0.36052      1.99933     4.34213    0.01906     6.36052
      N   10   -0.39631      1.99936     5.37384    0.02311     7.39631
      H   11    0.38374      0.00000     0.61355    0.00272     0.61626
      H   12    0.38989      0.00000     0.60753    0.00258     0.61011
      H   13    0.20112      0.00000     0.79603    0.00286     0.79888
      H   14    0.22960      0.00000     0.76853    0.00187     0.77040
      H   15    0.22990      0.00000     0.76713    0.00297     0.77010
      H   16    0.23405      0.00000     0.76379    0.00215     0.76595
      H   17    0.22440      0.00000     0.77188    0.00371     0.77560
      H   18    0.22494      0.00000     0.77219    0.00287     0.77506
      H   19    0.21618      0.00000     0.77713    0.00669     0.78382
      H   20    0.22637      0.00000     0.77067    0.00295     0.77363
      H   21    0.20906      0.00000     0.78188    0.00906     0.79094
      H   22    0.13073      0.00000     0.83057    0.03870     0.86927
      H   23    0.20869      0.00000     0.77250    0.01881     0.79131
      H   24    0.22535      0.00000     0.76500    0.00966     0.77465
      H   25    0.25378      0.00000     0.73941    0.00681     0.74622
      H   26    0.23438      0.00000     0.75256    0.01306     0.76562
      H   27    0.25342      0.00000     0.73326    0.01332     0.74658
      H   28    0.23721      0.00000     0.74632    0.01648     0.76279
      H   29    0.16712      0.00000     0.75133    0.08155     0.83288
      H   30    0.25526      0.00000     0.67808    0.06666     0.74474
 =======================================================================
   * Total *   -0.00085     19.99364    61.55855    0.44866    82.00085

 1\1\GINC-CN33\SP\RB3LYP TD-FC\6-31G(d,p)\C8H20N2\QDUEZ\09-Jul-2024\0\\
 # TD(NStates=10, Root=1) B3LYP/6-31G** SCRF=(Solvent=water) volume pop
 =NPA density=current Geom=AllCheck Guess=Read\\PWGJDPKCLMLPJW-UHFFFAOY
 SA-N_conf_2\\0,1\N,0,-4.4491246289,1.0104135193,1.1968173244\C,0,-4.20
 85044401,0.6436359815,-0.2095283569\C,0,-3.0463784908,-0.3448665798,-0
 .3492429416\C,0,-1.6808592487,0.2223381932,0.0610575835\C,0,-0.5268297
 264,-0.7659933235,-0.1498440348\C,0,0.841628769,-0.2090748616,0.260484
 2288\C,0,1.9865653854,-1.2162175983,0.0695097362\C,0,3.3841622128,-0.7

 Normal termination of Gaussian 16 at Tue Jul  9 20:16:14 2024.
