 Gaussian 16, Revision A.03,

 -------------------------------------------------------
 # opt=CalcFc B3LYP/6-31G** SCRF=(Solvent=water) scf=xqc
 -------------------------------------------------------

 ----------------------------------
 PWGJDPKCLMLPJW-UHFFFAOYSA-N_conf_4
 ----------------------------------
 Symbolic Z-matrix:
 Charge =  0 Multiplicity = 1

 SCF Done:  E(RB3LYP) =  -426.429683375     A.U. after   10 cycles
 SCF Done:  E(RB3LYP) =  -426.433301078     A.U. after    9 cycles
 SCF Done:  E(RB3LYP) =  -426.433370245     A.U. after    8 cycles
 SCF Done:  E(RB3LYP) =  -426.433370798     A.U. after    6 cycles
 Optimization completed.
    -- Stationary point found.
 Normal termination of Gaussian 16 at Tue Jul  9 18:33:17 2024.

 ----------------------------------------------------------------------
 # freq B3LYP/6-31G** SCRF=(Solvent=water) volume NMR pop=NPA density=c
 urrent Geom=AllCheck Guess=Read
 ----------------------------------------------------------------------

 Structure from the checkpoint file:  "PWGJDPKCLMLPJW-UHFFFAOYSA-N_conf_4_1.chk"
 ----------------------------------
 PWGJDPKCLMLPJW-UHFFFAOYSA-N_conf_4
 ----------------------------------
 Charge =  0 Multiplicity = 1

 SCF Done:  E(RB3LYP) =  -426.433370798     A.U. after    1 cycles

      1  N    Isotropic =   232.2955   Anisotropy =    33.1572

      2  C    Isotropic =   147.4860   Anisotropy =    36.4537

      3  C    Isotropic =   157.1183   Anisotropy =    25.3276

      4  C    Isotropic =   163.2485   Anisotropy =    18.3976

      5  C    Isotropic =   160.8997   Anisotropy =    20.7893

      6  C    Isotropic =   158.7929   Anisotropy =    23.5966

      7  C    Isotropic =   163.1376   Anisotropy =    22.6007

      8  C    Isotropic =   151.3402   Anisotropy =    41.7126

      9  C    Isotropic =   146.0944   Anisotropy =    40.1550

     10  N    Isotropic =   230.2757   Anisotropy =    27.7866

     11  H    Isotropic =    31.0385   Anisotropy =    15.3302

     12  H    Isotropic =    31.6271   Anisotropy =    12.4239

     13  H    Isotropic =    29.0548   Anisotropy =     5.9542

     14  H    Isotropic =    29.0383   Anisotropy =     5.9794

     15  H    Isotropic =    30.3414   Anisotropy =     7.0922

     16  H    Isotropic =    30.3297   Anisotropy =     5.5756

     17  H    Isotropic =    30.5599   Anisotropy =     6.8488

     18  H    Isotropic =    30.1558   Anisotropy =     5.4460

     19  H    Isotropic =    30.4705   Anisotropy =     7.0548

     20  H    Isotropic =    30.3013   Anisotropy =     5.3591

     21  H    Isotropic =    30.5008   Anisotropy =     5.6568

     22  H    Isotropic =    30.2799   Anisotropy =     7.0636

     23  H    Isotropic =    30.8286   Anisotropy =     5.1122

     24  H    Isotropic =    30.3168   Anisotropy =     5.8163

     25  H    Isotropic =    30.5172   Anisotropy =     4.3642

     26  H    Isotropic =    30.5028   Anisotropy =     4.4887

     27  H    Isotropic =    29.2994   Anisotropy =     5.3575

     28  H    Isotropic =    29.2985   Anisotropy =     5.3820

     29  H    Isotropic =    31.4178   Anisotropy =    12.4833

     30  H    Isotropic =    31.4204   Anisotropy =    12.3907

  Exact polarizability: 143.524  -4.234 119.005   0.553   1.125 122.580
 Approx polarizability: 138.693  -3.283 128.969   0.584   1.128 136.129

                      1                      2                      3
                      A                      A                      A
 Frequencies --     26.1187                45.2204                60.1344
 Red. masses --      3.7183                 1.9910                 2.0239
 Frc consts  --      0.0015                 0.0024                 0.0043
 IR Inten    --      1.5525                 0.7001                10.2664

                      4                      5                      6
                      A                      A                      A
 Frequencies --     86.0312               103.2433               120.0623
 Red. masses --      2.4663                 3.2020                 2.3193
 Frc consts  --      0.0108                 0.0201                 0.0197
 IR Inten    --      1.8427                 2.3008                 0.5003

                      7                      8                      9
                      A                      A                      A
 Frequencies --    146.1293               160.3201               240.9660
 Red. masses --      2.1285                 2.6225                 2.1321
 Frc consts  --      0.0268                 0.0397                 0.0729
 IR Inten    --      0.3774                 3.2340                 7.6300

                     10                     11                     12
                      A                      A                      A
 Frequencies --    256.7770               264.5125               302.9256
 Red. masses --      1.7262                 1.4104                 1.1131
 Frc consts  --      0.0671                 0.0581                 0.0602
 IR Inten    --      5.5154                42.4330                69.8302

                     13                     14                     15
                      A                      A                      A
 Frequencies --    305.8087               345.4565               389.9524
 Red. masses --      2.2678                 2.9304                 3.7298
 Frc consts  --      0.1250                 0.2060                 0.3342
 IR Inten    --     20.8449                 3.5359                 3.4568

                     16                     17                     18
                      A                      A                      A
 Frequencies --    484.2452               567.5355               734.4512
 Red. masses --      2.9756                 2.2888                 1.1350
 Frc consts  --      0.4111                 0.4344                 0.3607
 IR Inten    --      8.3848                 1.9794                 8.1501

                     19                     20                     21
                      A                      A                      A
 Frequencies --    751.1962               774.4056               785.5687
 Red. masses --      1.2376                 1.1858                 1.2487
 Frc consts  --      0.4115                 0.4190                 0.4540
 IR Inten    --      5.3311                 1.6430                 2.6374

                     22                     23                     24
                      A                      A                      A
 Frequencies --    852.4664               873.5191               905.2522
 Red. masses --      1.5961                 1.5952                 1.7980
 Frc consts  --      0.6834                 0.7171                 0.8681
 IR Inten    --      1.0400               118.5053                26.5057

                     25                     26                     27
                      A                      A                      A
 Frequencies --    916.1836               918.2978               988.6488
 Red. masses --      1.5593                 1.5412                 1.8254
 Frc consts  --      0.7712                 0.7657                 1.0512
 IR Inten    --     77.7935               199.2408                 0.3543

                     28                     29                     30
                      A                      A                      A
 Frequencies --    998.1170              1034.2075              1047.7553
 Red. masses --      1.6350                 3.1892                 2.3114
 Frc consts  --      0.9597                 2.0098                 1.4950
 IR Inten    --      3.4796                 0.3013                11.7281

                     31                     32                     33
                      A                      A                      A
 Frequencies --   1057.3883              1058.0225              1077.5735
 Red. masses --      1.4830                 2.0736                 2.4455
 Frc consts  --      0.9769                 1.3676                 1.6731
 IR Inten    --     26.6502                45.7128                 6.3019

                     34                     35                     36
                      A                      A                      A
 Frequencies --   1090.2376              1103.1131              1124.3551
 Red. masses --      1.9511                 2.1759                 1.3060
 Frc consts  --      1.3664                 1.5600                 0.9727
 IR Inten    --      7.0955                13.0023                 1.4083

                     37                     38                     39
                      A                      A                      A
 Frequencies --   1155.6032              1182.2321              1228.7073
 Red. masses --      2.1915                 1.4292                 1.5339
 Frc consts  --      1.7243                 1.1770                 1.3644
 IR Inten    --      0.5716                 8.5978                 3.6164

                     40                     41                     42
                      A                      A                      A
 Frequencies --   1268.0408              1277.6921              1308.2634
 Red. masses --      1.3340                 1.4072                 1.2958
 Frc consts  --      1.2638                 1.3535                 1.3067
 IR Inten    --      4.1640                 3.7225                 3.1207

                     43                     44                     45
                      A                      A                      A
 Frequencies --   1315.0063              1329.6369              1333.5512
 Red. masses --      1.2638                 1.1748                 1.0791
 Frc consts  --      1.2876                 1.2237                 1.1306
 IR Inten    --      3.1078                 0.4655                 0.3521

                     46                     47                     48
                      A                      A                      A
 Frequencies --   1338.4293              1351.6617              1362.3729
 Red. masses --      1.1261                 1.2017                 1.2907
 Frc consts  --      1.1886                 1.2935                 1.4114
 IR Inten    --      4.4924                 5.5528                 3.3058

                     49                     50                     51
                      A                      A                      A
 Frequencies --   1370.5511              1397.0722              1404.2222
 Red. masses --      1.3098                 1.1776                 1.4249
 Frc consts  --      1.4496                 1.3542                 1.6555
 IR Inten    --      1.6303                 0.0490                16.5069

                     52                     53                     54
                      A                      A                      A
 Frequencies --   1409.9576              1412.8237              1439.0794
 Red. masses --      1.5225                 1.5473                 1.4745
 Frc consts  --      1.7833                 1.8197                 1.7992
 IR Inten    --      2.3654                 0.3538                 8.2102

                     55                     56                     57
                      A                      A                      A
 Frequencies --   1482.6892              1485.4370              1490.5877
 Red. masses --      1.0751                 1.0801                 1.0864
 Frc consts  --      1.3925                 1.4041                 1.4222
 IR Inten    --      0.5793                 0.0435                 2.4074

                     58                     59                     60
                      A                      A                      A
 Frequencies --   1496.0412              1503.7272              1507.5968
 Red. masses --      1.0906                 1.0933                 1.0984
 Frc consts  --      1.4382                 1.4565                 1.4709
 IR Inten    --      0.9497                 0.6370                 3.9711

                     61                     62                     63
                      A                      A                      A
 Frequencies --   1517.3911              1525.9375              1655.7175
 Red. masses --      1.0987                 1.0898                 1.0875
 Frc consts  --      1.4905                 1.4951                 1.7565
 IR Inten    --      2.1223                 1.0398                35.3035

                     64                     65                     66
                      A                      A                      A
 Frequencies --   1660.2317              2949.1428              3006.7062
 Red. masses --      1.0870                 1.0732                 1.0589
 Frc consts  --      1.7653                 5.4993                 5.6400
 IR Inten    --     31.5262               120.2669                 8.2806

                     67                     68                     69
                      A                      A                      A
 Frequencies --   3008.0645              3012.5596              3015.8572
 Red. masses --      1.0601                 1.0627                 1.0626
 Frc consts  --      5.6514                 5.6822                 5.6941
 IR Inten    --      8.5471                34.4838                87.6871

                     70                     71                     72
                      A                      A                      A
 Frequencies --   3019.2696              3024.4687              3025.7043
 Red. masses --      1.0626                 1.0608                 1.0602
 Frc consts  --      5.7070                 5.7173                 5.7186
 IR Inten    --     60.5132                70.8938               122.2548

                     73                     74                     75
                      A                      A                      A
 Frequencies --   3035.7298              3042.9581              3045.0845
 Red. masses --      1.0971                 1.0988                 1.1013
 Frc consts  --      5.9570                 5.9947                 6.0167
 IR Inten    --      6.1627                20.3616                 5.9484

                     76                     77                     78
                      A                      A                      A
 Frequencies --   3050.7237              3062.6490              3069.6729
 Red. masses --      1.0944                 1.1043                 1.1004
 Frc consts  --      6.0011                 6.1026                 6.1092
 IR Inten    --      6.5594                 6.0847               163.2895

                     79                     80                     81
                      A                      A                      A
 Frequencies --   3071.0426              3072.8757              3468.3867
 Red. masses --      1.1002                 1.1039                 1.0502
 Frc consts  --      6.1138                 6.1415                 7.4435
 IR Inten    --     92.3316               314.5342                 1.6008

                     82                     83                     84
                      A                      A                      A
 Frequencies --   3474.6750              3545.0544              3552.8467
 Red. masses --      1.0510                 1.0914                 1.0913
 Frc consts  --      7.4761                 8.0813                 8.1158
 IR Inten    --      2.3414                 0.2639                 0.2002

 - Thermochemistry -
 -------------------
 Temperature   298.150 Kelvin.  Pressure   1.00000 Atm.
 Atom     1 has atomic number  7 and mass  14.00307

 Molecular mass:   144.16265 amu.
 Principal axes and moments of inertia in atomic units:
                           1         2         3
     Eigenvalues --   487.025315857.248696051.77274
           X            0.99999  -0.00515   0.00116
           Y            0.00514   0.99997   0.00568
           Z           -0.00119  -0.00567   0.99998
 This molecule is an asymmetric top.
 Rotational symmetry number  1.
 Warning -- assumption of classical behavior for rotation
           may cause significant error
 Rotational temperatures (Kelvin)      0.17784     0.01479     0.01431
 Rotational constants (GHZ):           3.70564     0.30812     0.29822
 Zero-point vibrational energy     740248.8 (Joules/Mol)
                                  176.92370 (Kcal/Mol)
 Warning -- explicit consideration of  17 degrees of freedom as
           vibrations may cause significant error
 Vibrational temperatures:     37.58    65.06    86.52   123.78   148.54
          (Kelvin)            172.74   210.25   230.66   346.70   369.44
                              380.57   435.84   439.99   497.03   561.05
                              696.72   816.56  1056.71  1080.80  1114.20
                             1130.26  1226.51  1256.80  1302.46  1318.18
                             1321.23  1422.45  1436.07  1487.99  1507.49
                             1521.35  1522.26  1550.39  1568.61  1587.13
                             1617.70  1662.66  1700.97  1767.84  1824.43
                             1838.31  1882.30  1892.00  1913.05  1918.68
                             1925.70  1944.74  1960.15  1971.92  2010.08
                             2020.36  2028.61  2032.74  2070.51  2133.26
                             2137.21  2144.62  2152.47  2163.53  2169.10
                             2183.19  2195.48  2382.21  2388.70  4243.16
                             4325.98  4327.93  4334.40  4339.15  4344.06
                             4351.54  4353.31  4367.74  4378.14  4381.20
                             4389.31  4406.47  4416.57  4418.55  4421.18
                             4990.23  4999.28  5100.54  5111.75

 Zero-point correction=                           0.281946 (Hartree/Particle)
 Thermal correction to Energy=                    0.295331
 Thermal correction to Enthalpy=                  0.296275
 Thermal correction to Gibbs Free Energy=         0.240488
 Sum of electronic and zero-point Energies=           -426.151425
 Sum of electronic and thermal Energies=              -426.138040
 Sum of electronic and thermal Enthalpies=            -426.137096
 Sum of electronic and thermal Free Energies=         -426.192883

                     E (Thermal)             CV                S
                      KCal/Mol        Cal/Mol-Kelvin    Cal/Mol-Kelvin
 Total                  185.323             47.415            117.413
 Electronic               0.000              0.000              0.000
 Translational            0.889              2.981             40.808
 Rotational               0.889              2.981             31.224
 Vibrational            183.545             41.453             45.381
 Vibration     1          0.593              1.985              6.104
 Vibration     2          0.595              1.979              5.016
 Vibration     3          0.597              1.973              4.453
 Vibration     4          0.601              1.959              3.748
 Vibration     5          0.605              1.947              3.392
 Vibration     6          0.609              1.933              3.099
 Vibration     7          0.617              1.907              2.722
 Vibration     8          0.622              1.891              2.546
 Vibration     9          0.658              1.778              1.796
 Vibration    10          0.666              1.751              1.684
 Vibration    11          0.671              1.738              1.632
 Vibration    12          0.694              1.668              1.401
 Vibration    13          0.696              1.663              1.385
 Vibration    14          0.724              1.585              1.187
 Vibration    15          0.758              1.492              1.000
 Vibration    16          0.840              1.285              0.699
 Vibration    17          0.923              1.101              0.509

 Optimization completed.
    -- Stationary point found.
 Normal termination of Gaussian 16 at Tue Jul  9 19:04:49 2024.
 Gaussian 16:  EM64L-G16RevA.03 25-Dec-2016

 ----------------------------------------------------------------------
 # TD(NStates=10, Root=1) B3LYP/6-31G** SCRF=(Solvent=water) volume pop
 =NPA density=current Geom=AllCheck Guess=Read
 ----------------------------------------------------------------------

 Structure from the checkpoint file:  "PWGJDPKCLMLPJW-UHFFFAOYSA-N_conf_4_2.chk"
 ----------------------------------
 PWGJDPKCLMLPJW-UHFFFAOYSA-N_conf_4
 ----------------------------------
 Charge =  0 Multiplicity = 1

                         Standard orientation:
 ---------------------------------------------------------------------
 Center     Atomic      Atomic             Coordinates (Angstroms)
 Number     Number       Type             X           Y           Z
 ---------------------------------------------------------------------
      1          7           0        5.065941   -0.790802   -0.299942
      2          6           0        3.596180   -0.714935   -0.326283
      3          6           0        3.091211    0.293528    0.709513
      4          6           0        1.561080    0.411392    0.789370
      5          6           0        0.902703    0.995208   -0.470483
      6          6           0       -0.603975    1.269078   -0.331590
      7          6           0       -1.473320    0.015160   -0.161829
      8          6           0       -2.974600    0.324233   -0.099597
      9          6           0       -3.849025   -0.926588    0.068728
     10          7           0       -5.299637   -0.692700    0.134956
     11          1           0        5.377354   -1.458680   -1.002963
     12          1           0        5.356349   -1.190443    0.591747
     13          1           0        3.300115   -0.397964   -1.333047
     14          1           0        3.102233   -1.686650   -0.147492
     15          1           0        3.475023   -0.003507    1.695757
     16          1           0        3.531880    1.275265    0.490997
     17          1           0        1.303911    1.049487    1.645776
     18          1           0        1.137438   -0.577160    1.010486
     19          1           0        1.409017    1.936862   -0.724139
     20          1           0        1.064388    0.324051   -1.324637
     21          1           0       -0.771611    1.943501    0.520550
     22          1           0       -0.945828    1.814618   -1.221629
     23          1           0       -1.278664   -0.673211   -0.997110
     24          1           0       -1.181347   -0.522284    0.749948
     25          1           0       -3.174214    1.012624    0.734419
     26          1           0       -3.279993    0.852210   -1.014620
     27          1           0       -3.552589   -1.456998    0.983175
     28          1           0       -3.658154   -1.618131   -0.762380
     29          1           0       -5.589295   -0.195254   -0.706545
     30          1           0       -5.491668   -0.046278    0.899641
 ---------------------------------------------------------------------

 SCF Done:  E(RB3LYP) =  -426.433370798     A.U. after    1 cycles

 Excitation energies and oscillator strengths:

 Excited State   1:      Singlet-A      7.4513 eV  166.39 nm  f=0.0172  <S**2>=0.000
      41 -> 42         0.67303
      41 -> 44        -0.15201
 This state for optimization and/or second-order correction.
 Total Energy, E(TD-HF/TD-DFT) =  -426.159539775
 Copying the excited state density for this state as the 1-particle RhoCI density.

 Excited State   2:      Singlet-A      7.4938 eV  165.45 nm  f=0.0145  <S**2>=0.000
      40 -> 42        -0.11979
      40 -> 43         0.66925
      40 -> 44        -0.15911

 Excited State   3:      Singlet-A      8.2071 eV  151.07 nm  f=0.0119  <S**2>=0.000
      40 -> 43         0.19322
      40 -> 44         0.61556
      40 -> 46        -0.20495
      40 -> 47        -0.10633
      41 -> 44         0.10459

 Excited State   4:      Singlet-A      8.2363 eV  150.53 nm  f=0.0007  <S**2>=0.000
      40 -> 44        -0.10353
      41 -> 42         0.16601
      41 -> 43         0.11612
      41 -> 44         0.60366
      41 -> 46         0.26020

 Excited State   5:      Singlet-A      8.5005 eV  145.86 nm  f=0.0005  <S**2>=0.000
      40 -> 42         0.68985

 Excited State   6:      Singlet-A      8.5103 eV  145.69 nm  f=0.0086  <S**2>=0.000
      41 -> 42        -0.11669
      41 -> 43         0.67594
      41 -> 45         0.11904

 Excited State   7:      Singlet-A      8.5563 eV  144.90 nm  f=0.0248  <S**2>=0.000
      41 -> 43        -0.11626
      41 -> 45         0.53459
      41 -> 46         0.20377
      41 -> 48         0.35061
      41 -> 49         0.10719
      41 -> 51         0.12049

 Excited State   8:      Singlet-A      8.6395 eV  143.51 nm  f=0.0211  <S**2>=0.000
      40 -> 45         0.54656
      40 -> 47         0.21225
      40 -> 48        -0.33138
      40 -> 51         0.16530

 Excited State   9:      Singlet-A      8.7580 eV  141.57 nm  f=0.0296  <S**2>=0.000
      41 -> 44        -0.28911
      41 -> 45        -0.14041
      41 -> 46         0.55997
      41 -> 47        -0.12407
      41 -> 48        -0.14976
      41 -> 49         0.18748

 Excited State  10:      Singlet-A      8.8857 eV  139.53 nm  f=0.0021  <S**2>=0.000
      40 -> 44         0.25033
      40 -> 46         0.62543
      40 -> 49        -0.15519

 The electronic state is 1-A.
 Alpha  occ. eigenvalues --  -14.30896 -14.30801 -10.20017 -10.19968 -10.17463
 Alpha  occ. eigenvalues --  -10.17448 -10.17427 -10.17392 -10.17379 -10.17274
 Alpha  occ. eigenvalues --   -0.87349  -0.87252  -0.80079  -0.76806  -0.72334
 Alpha  occ. eigenvalues --   -0.66856  -0.63050  -0.59174  -0.57826  -0.55305
 Alpha  occ. eigenvalues --   -0.49199  -0.48028  -0.46438  -0.44436  -0.43908
 Alpha  occ. eigenvalues --   -0.43221  -0.41905  -0.40726  -0.39300  -0.38071
 Alpha  occ. eigenvalues --   -0.36419  -0.35908  -0.34119  -0.33825  -0.33085
 Alpha  occ. eigenvalues --   -0.32080  -0.31393  -0.30934  -0.30390  -0.23559
 Alpha  occ. eigenvalues --   -0.23402
 Alpha virt. eigenvalues --    0.08843   0.09087   0.09437   0.11350   0.11432
 Alpha virt. eigenvalues --    0.12115   0.13103   0.14198   0.15564   0.15938
 Alpha virt. eigenvalues --    0.16917   0.17642   0.18053   0.18653   0.19401

 Mulliken charges:
               1
     1  N   -0.646739
     2  C   -0.047614
     3  C   -0.175907
     4  C   -0.180661
     5  C   -0.179995
     6  C   -0.182853
     7  C   -0.179751
     8  C   -0.137915
     9  C   -0.091354
    10  N   -0.042343
    11  H    0.250492
    12  H    0.248469
    13  H    0.103623
    14  H    0.080454
    15  H    0.089747
    16  H    0.092762
    17  H    0.091738
    18  H    0.096198
    19  H    0.094312
    20  H    0.098383
    21  H    0.096768
    22  H    0.095775
    23  H    0.102301
    24  H    0.107100
    25  H    0.053124
    26  H    0.053359
    27  H    0.092671
    28  H    0.092883
    29  H   -0.037331
    30  H   -0.037696
 Sum of Mulliken charges =  -0.00000

 Dipole moment (field-independent basis, Debye):
    X=              1.0092    Y=             -2.3569    Z=              0.2408  Tot=              2.5751
 Quadrupole moment (field-independent basis, Debye-Ang):
   XX=            -82.6002   YY=            -64.5555   ZZ=            -68.3609
   XY=             -4.3565   XZ=              1.3443   YZ=              0.1639

 Summary of Natural Population Analysis:

                                       Natural Population
                Natural  -----------------------------------------------
    Atom  No    Charge         Core      Valence    Rydberg      Total
 -----------------------------------------------------------------------
      N    1   -0.92840      1.99968     5.91391    0.01481     7.92840
      C    2   -0.26137      1.99936     4.24893    0.01308     6.26137
      C    3   -0.47198      1.99933     4.46052    0.01213     6.47198
      C    4   -0.46549      1.99933     4.45515    0.01101     6.46549
      C    5   -0.46069      1.99933     4.45028    0.01107     6.46069
      C    6   -0.45470      1.99933     4.44407    0.01130     6.45470
      C    7   -0.46633      1.99931     4.45387    0.01315     6.46633
      C    8   -0.47213      1.99926     4.45467    0.01820     6.47213
      C    9   -0.36725      1.99936     4.34548    0.02240     6.36725
      N   10   -0.39148      1.99937     5.36305    0.02906     7.39148
      H   11    0.38950      0.00000     0.60784    0.00266     0.61050
      H   12    0.38231      0.00000     0.61473    0.00296     0.61769
      H   13    0.22343      0.00000     0.77468    0.00189     0.77657
      H   14    0.20088      0.00000     0.79637    0.00275     0.79912
      H   15    0.23420      0.00000     0.76375    0.00205     0.76580
      H   16    0.23174      0.00000     0.76546    0.00280     0.76826
      H   17    0.23669      0.00000     0.76126    0.00204     0.76331
      H   18    0.22989      0.00000     0.76785    0.00227     0.77011
      H   19    0.23893      0.00000     0.75897    0.00210     0.76107
      H   20    0.23086      0.00000     0.76710    0.00204     0.76914
      H   21    0.23237      0.00000     0.76518    0.00246     0.76763
      H   22    0.23926      0.00000     0.75858    0.00217     0.76074
      H   23    0.23547      0.00000     0.76168    0.00285     0.76453
      H   24    0.23619      0.00000     0.76120    0.00260     0.76381
      H   25    0.20492      0.00000     0.76885    0.02623     0.79508
      H   26    0.20497      0.00000     0.76905    0.02598     0.79503
      H   27    0.22534      0.00000     0.75299    0.02167     0.77466
      H   28    0.22555      0.00000     0.75288    0.02156     0.77445
      H   29    0.16880      0.00000     0.74354    0.08767     0.83120
      H   30    0.16847      0.00000     0.74383    0.08770     0.83153
 =======================================================================
   * Total *   -0.00004     19.99367    61.54573    0.46064    82.00004

 1\1\GINC-CN34\SP\RB3LYP TD-FC\6-31G(d,p)\C8H20N2\QDUEZ\09-Jul-2024\0\\
 # TD(NStates=10, Root=1) B3LYP/6-31G** SCRF=(Solvent=water) volume pop
 =NPA density=current Geom=AllCheck Guess=Read\\PWGJDPKCLMLPJW-UHFFFAOY
 SA-N_conf_4\\0,1\N,0,-5.018945571,-0.2665829291,1.0647074755\C,0,-3.55
 70309246,-0.3348897682,0.9072720124\C,0,-3.1266494288,0.321074134,-0.4
 077742126\C,0,-1.6163046186,0.260096766,-0.6847385321\C,0,-0.757804979
 5,1.0755771289,0.2948027424\C,0,0.7321562727,1.1520213602,-0.077414409
 9\C,0,1.4834448736,-0.1848077037,-0.0043154802\C,0,2.9806753147,-0.054

 Normal termination of Gaussian 16 at Tue Jul  9 19:44:01 2024.
