 Gaussian 16, Revision A.03,

 -------------------------------------------------------
 # opt=CalcFc B3LYP/6-31G** SCRF=(Solvent=water) scf=xqc
 -------------------------------------------------------

 ----------------------------------
 RAUWPNXIALNKQM-UHFFFAOYSA-N_conf_0
 ----------------------------------
 Symbolic Z-matrix:
 Charge =  0 Multiplicity = 1

 SCF Done:  E(RB3LYP) =  -547.490647039     A.U. after   13 cycles
 SCF Done:  E(RB3LYP) =  -547.495057875     A.U. after   12 cycles
 SCF Done:  E(RB3LYP) =  -547.495524030     A.U. after   11 cycles
 SCF Done:  E(RB3LYP) =  -547.495557616     A.U. after   10 cycles
 SCF Done:  E(RB3LYP) =  -547.495562333     A.U. after    9 cycles
 SCF Done:  E(RB3LYP) =  -547.495562842     A.U. after    8 cycles
 Optimization completed.
    -- Stationary point found.
 Normal termination of Gaussian 16 at Thu Jul 11 18:40:31 2024.

 ----------------------------------------------------------------------
 # freq B3LYP/6-31G** SCRF=(Solvent=water) volume NMR pop=NPA density=c
 urrent Geom=AllCheck Guess=Read
 ----------------------------------------------------------------------

 Structure from the checkpoint file:  "RAUWPNXIALNKQM-UHFFFAOYSA-N_conf_0_1.chk"
 ----------------------------------
 RAUWPNXIALNKQM-UHFFFAOYSA-N_conf_0
 ----------------------------------
 Charge =  0 Multiplicity = 1

 SCF Done:  E(RB3LYP) =  -547.495562842     A.U. after    1 cycles

      1  N    Isotropic =   192.4428   Anisotropy =    40.2769

      2  C    Isotropic =    51.5409   Anisotropy =   157.6601

      3  C    Isotropic =    82.9536   Anisotropy =   125.8447

      4  C    Isotropic =    76.5805   Anisotropy =   158.8622

      5  C    Isotropic =    57.2031   Anisotropy =    94.6513

      6  N    Isotropic =  -112.7230   Anisotropy =   274.0714

      7  O    Isotropic =  -224.9728   Anisotropy =   636.4785

      8  O    Isotropic =  -225.7614   Anisotropy =   634.9509

      9  C    Isotropic =    83.9364   Anisotropy =   129.6561

     10  C    Isotropic =    62.7102   Anisotropy =   134.6247

     11  N    Isotropic =   207.4061   Anisotropy =    39.3227

     12  H    Isotropic =    27.9297   Anisotropy =     9.7080

     13  H    Isotropic =    27.8418   Anisotropy =    12.6820

     14  H    Isotropic =    25.1110   Anisotropy =     5.5358

     15  H    Isotropic =    23.9101   Anisotropy =     4.5235

     16  H    Isotropic =    24.1812   Anisotropy =     6.4923

     17  H    Isotropic =    29.1776   Anisotropy =    11.3902

     18  H    Isotropic =    28.5375   Anisotropy =    13.0502

  Exact polarizability: 228.060  -7.122 142.474  -0.759   0.845  41.296
 Approx polarizability: 296.546 -10.839 194.968  -1.907   3.149  52.908

                      1                      2                      3
                      A                      A                      A
 Frequencies --     66.1485               112.1537               208.7871
 Red. masses --     10.1821                 5.6307                 4.0548
 Frc consts  --      0.0262                 0.0417                 0.1041
 IR Inten    --      0.0233                 0.2262                 0.5114

                      4                      5                      6
                      A                      A                      A
 Frequencies --    216.1117               267.0776               317.1161
 Red. masses --      6.3627                 1.1572                 3.3998
 Frc consts  --      0.1751                 0.0486                 0.2014
 IR Inten    --      2.7388                12.9653                 3.5427

                      7                      8                      9
                      A                      A                      A
 Frequencies --    336.0366               367.2971               428.3842
 Red. masses --      3.6533                 8.7911                 4.9283
 Frc consts  --      0.2431                 0.6988                 0.5329
 IR Inten    --     19.8649                 0.7048                14.2630

                     10                     11                     12
                      A                      A                      A
 Frequencies --    443.3154               495.9126               551.7882
 Red. masses --      2.3510                 1.1206                 3.7843
 Frc consts  --      0.2722                 0.1624                 0.6789
 IR Inten    --     57.1142                 6.3960               202.3236

                     13                     14                     15
                      A                      A                      A
 Frequencies --    559.5317               570.5993               582.2850
 Red. masses --      3.3934                 2.1581                 2.9899
 Frc consts  --      0.6259                 0.4140                 0.5973
 IR Inten    --    126.2743               363.3808               226.1929

                     16                     17                     18
                      A                      A                      A
 Frequencies --    659.8615               705.5037               752.1725
 Red. masses --      5.8833                 2.9270                 6.3962
 Frc consts  --      1.5093                 0.8584                 2.1321
 IR Inten    --      4.3565                80.3103                47.4794

                     19                     20                     21
                      A                      A                      A
 Frequencies --    766.8909               796.3458               826.6559
 Red. masses --      1.7261                 4.4120                 2.3717
 Frc consts  --      0.5981                 1.6485                 0.9549
 IR Inten    --    490.9529                 3.4156                25.7289

                     22                     23                     24
                      A                      A                      A
 Frequencies --    829.6281               892.3338               952.4049
 Red. masses --      2.7275                 1.4441                 1.2823
 Frc consts  --      1.1061                 0.6775                 0.6853
 IR Inten    --      7.3629                45.4372                 0.6153

                     25                     26                     27
                      A                      A                      A
 Frequencies --    967.8418              1070.9655              1115.8730
 Red. masses --      4.0390                 1.5821                 1.9501
 Frc consts  --      2.2291                 1.0691                 1.4307
 IR Inten    --     16.8179                14.7556               101.8539

                     28                     29                     30
                      A                      A                      A
 Frequencies --   1134.7397              1177.7152              1282.4790
 Red. masses --      1.3137                 1.2667                 2.9566
 Frc consts  --      0.9966                 1.0351                 2.8652
 IR Inten    --     90.8219                48.5981                96.3632

                     31                     32                     33
                      A                      A                      A
 Frequencies --   1321.8877              1335.0705              1364.5323
 Red. masses --      1.5712                 4.7516                 4.4930
 Frc consts  --      1.6176                 4.9900                 4.9289
 IR Inten    --    123.4987              1538.4360               339.7923

                     34                     35                     36
                      A                      A                      A
 Frequencies --   1423.1923              1485.0460              1548.2221
 Red. masses --      5.3208                 3.9582                 3.7430
 Frc consts  --      6.3497                 5.1431                 5.2862
 IR Inten    --     16.8033                 7.7537               103.1952

                     37                     38                     39
                      A                      A                      A
 Frequencies --   1566.8119              1621.8814              1639.5119
 Red. masses --      8.1141                 1.8244                 5.6374
 Frc consts  --     11.7361                 2.8276                 8.9280
 IR Inten    --    492.0915                32.9597                86.0670

                     40                     41                     42
                      A                      A                      A
 Frequencies --   1665.8969              1670.4795              3197.3816
 Red. masses --      1.5252                 1.5637                 1.0908
 Frc consts  --      2.4939                 2.5709                 6.5702
 IR Inten    --    251.6262               100.8687                16.6774

                     43                     44                     45
                      A                      A                      A
 Frequencies --   3233.8044              3250.7541              3521.4972
 Red. masses --      1.0912                 1.0928                 1.0515
 Frc consts  --      6.7231                 6.8039                 7.6828
 IR Inten    --      4.3116                 0.9355                19.4519

                     46                     47                     48
                      A                      A                      A
 Frequencies --   3557.9321              3626.5368              3672.0033
 Red. masses --      1.0484                 1.0940                 1.0995
 Frc consts  --      7.8193                 8.4768                 8.7349
 IR Inten    --    105.4782                30.3554                56.3946

 - Thermochemistry -
 -------------------
 Temperature   298.150 Kelvin.  Pressure   1.00000 Atm.
 Atom     1 has atomic number  7 and mass  14.00307

 Molecular mass:   153.05383 amu.
 Principal axes and moments of inertia in atomic units:
                           1         2         3
     Eigenvalues --   725.000642476.025263195.65862
           X            0.99999   0.00475   0.00046
           Y           -0.00474   0.99996  -0.00755
           Z           -0.00050   0.00755   0.99997
 This molecule is an asymmetric top.
 Rotational symmetry number  1.
 Warning -- assumption of classical behavior for rotation
           may cause significant error
 Rotational temperatures (Kelvin)      0.11947     0.03498     0.02710
 Rotational constants (GHZ):           2.48930     0.72889     0.56475
 Zero-point vibrational energy     359815.2 (Joules/Mol)
                                   85.99789 (Kcal/Mol)
 Warning -- explicit consideration of  15 degrees of freedom as
           vibrations may cause significant error
 Vibrational temperatures:     95.17   161.36   300.40   310.94   384.27
          (Kelvin)            456.26   483.48   528.46   616.35   637.83
                              713.51   793.90   805.04   820.97   837.78
                              949.39  1015.06  1082.21  1103.38  1145.76
                             1189.37  1193.65  1283.87  1370.30  1392.51
                             1540.88  1605.49  1632.64  1694.47  1845.20
                             1901.90  1920.87  1963.26  2047.66  2136.65
                             2227.55  2254.29  2333.53  2358.89  2396.85
                             2403.45  4600.32  4652.72  4677.11  5066.65
                             5119.07  5217.78  5283.19

 Zero-point correction=                           0.137046 (Hartree/Particle)
 Thermal correction to Energy=                    0.146502
 Thermal correction to Enthalpy=                  0.147446
 Thermal correction to Gibbs Free Energy=         0.102401
 Sum of electronic and zero-point Energies=           -547.358516
 Sum of electronic and thermal Energies=              -547.349061
 Sum of electronic and thermal Enthalpies=            -547.348117
 Sum of electronic and thermal Free Energies=         -547.393162

                     E (Thermal)             CV                S
                      KCal/Mol        Cal/Mol-Kelvin    Cal/Mol-Kelvin
 Total                   91.931             36.951             94.805
 Electronic               0.000              0.000              0.000
 Translational            0.889              2.981             40.987
 Rotational               0.889              2.981             30.129
 Vibrational             90.154             30.989             23.689
 Vibration     1          0.598              1.970              4.265
 Vibration     2          0.607              1.939              3.231
 Vibration     3          0.642              1.827              2.054
 Vibration     4          0.645              1.816              1.991
 Vibration     5          0.672              1.734              1.615
 Vibration     6          0.704              1.641              1.325
 Vibration     7          0.717              1.604              1.231
 Vibration     8          0.740              1.540              1.091
 Vibration     9          0.790              1.408              0.864
 Vibration    10          0.803              1.376              0.816
 Vibration    11          0.851              1.259              0.668
 Vibration    12          0.907              1.136              0.540
 Vibration    13          0.915              1.119              0.525
 Vibration    14          0.927              1.095              0.503
 Vibration    15          0.939              1.070              0.481

                           ! Non-Optimized Parameters !
 Normal termination of Gaussian 16 at Thu Jul 11 18:57:56 2024.
 Gaussian 16:  EM64L-G16RevA.03 25-Dec-2016

 ----------------------------------------------------------------------
 # TD(NStates=10, Root=1) B3LYP/6-31G** SCRF=(Solvent=water) volume pop
 =NPA density=current Geom=AllCheck Guess=Read
 ----------------------------------------------------------------------

 Structure from the checkpoint file:  "RAUWPNXIALNKQM-UHFFFAOYSA-N_conf_0_2.chk"
 ----------------------------------
 RAUWPNXIALNKQM-UHFFFAOYSA-N_conf_0
 ----------------------------------
 Charge =  0 Multiplicity = 1

                         Standard orientation:
 ---------------------------------------------------------------------
 Center     Atomic      Atomic             Coordinates (Angstroms)
 Number     Number       Type             X           Y           Z
 ---------------------------------------------------------------------
      1          7           0        3.158487   -0.750208   -0.005905
      2          6           0        1.795166   -0.561065    0.002612
      3          6           0        0.891722   -1.638523   -0.023737
      4          6           0       -0.478694   -1.425493   -0.025082
      5          6           0       -0.954071   -0.112222   -0.000967
      6          7           0       -2.376359    0.126296    0.009315
      7          8           0       -3.144580   -0.847596   -0.022579
      8          8           0       -2.782429    1.298189    0.049371
      9          6           0       -0.078947    0.984423   -0.004813
     10          6           0        1.292579    0.776024   -0.010162
     11          7           0        2.223392    1.825933    0.036421
     12          1           0        3.703572   -0.029154    0.451239
     13          1           0        3.484769   -1.684805    0.199876
     14          1           0        1.281242   -2.651938   -0.021180
     15          1           0       -1.175253   -2.253199   -0.029304
     16          1           0       -0.483450    1.989080   -0.013186
     17          1           0        2.964050    1.731833   -0.653137
     18          1           0        1.795967    2.740439   -0.054571
 ---------------------------------------------------------------------

 SCF Done:  E(RB3LYP) =  -547.495562842     A.U. after    3 cycles

 Excitation energies and oscillator strengths:

 Excited State   1:      Singlet-A      3.0412 eV  407.68 nm  f=0.2715  <S**2>=0.000
      39 -> 41         0.13076
      40 -> 41         0.69420
 This state for optimization and/or second-order correction.
 Total Energy, E(TD-HF/TD-DFT) =  -547.383799939
 Copying the excited state density for this state as the 1-particle RhoCI density.

 Excited State   2:      Singlet-A      3.7896 eV  327.17 nm  f=0.1133  <S**2>=0.000
      38 -> 41         0.50411
      39 -> 41         0.47738

 Excited State   3:      Singlet-A      3.8422 eV  322.69 nm  f=0.1306  <S**2>=0.000
      38 -> 41        -0.48651
      39 -> 41         0.49417

 Excited State   4:      Singlet-A      4.4670 eV  277.56 nm  f=0.0002  <S**2>=0.000
      36 -> 41         0.67573
      37 -> 41        -0.16190

 Excited State   5:      Singlet-A      4.8982 eV  253.12 nm  f=0.2229  <S**2>=0.000
      39 -> 43        -0.14433
      40 -> 42         0.67748

 Excited State   6:      Singlet-A      5.7228 eV  216.65 nm  f=0.0626  <S**2>=0.000
      35 -> 41         0.52749
      37 -> 41         0.11614
      39 -> 42         0.14226
      40 -> 43         0.41824

 Excited State   7:      Singlet-A      5.8061 eV  213.54 nm  f=0.0635  <S**2>=0.000
      35 -> 41        -0.42067
      37 -> 41        -0.13443
      39 -> 42         0.24729
      40 -> 43         0.47774

 Excited State   8:      Singlet-A      6.0367 eV  205.39 nm  f=0.1671  <S**2>=0.000
      34 -> 41         0.41814
      37 -> 41         0.21323
      39 -> 42         0.47617
      40 -> 43        -0.17102

 Excited State   9:      Singlet-A      6.0977 eV  203.33 nm  f=0.1140  <S**2>=0.000
      34 -> 41        -0.27300
      35 -> 41        -0.13802
      36 -> 41         0.15585
      37 -> 41         0.60057

 Excited State  10:      Singlet-A      6.2775 eV  197.51 nm  f=0.2510  <S**2>=0.000
      34 -> 41         0.48695
      37 -> 41         0.14420
      39 -> 42        -0.40711
      40 -> 43         0.22687

 The electronic state is 1-A.
 Alpha  occ. eigenvalues --  -19.17238 -19.17203 -14.56427 -14.35698 -14.34624
 Alpha  occ. eigenvalues --  -10.24911 -10.23910 -10.23645 -10.20585 -10.20409
 Alpha  occ. eigenvalues --  -10.19955  -1.21213  -1.03670  -0.95129  -0.90374
 Alpha  occ. eigenvalues --   -0.86443  -0.78328  -0.74750  -0.68504  -0.63149
 Alpha  occ. eigenvalues --   -0.58864  -0.55370  -0.54110  -0.52354  -0.52275
 Alpha  occ. eigenvalues --   -0.50242  -0.49113  -0.47588  -0.44096  -0.43686
 Alpha  occ. eigenvalues --   -0.41946  -0.39574  -0.36621  -0.33030  -0.32235
 Alpha  occ. eigenvalues --   -0.30679  -0.30481  -0.28416  -0.24520  -0.20861
 Alpha virt. eigenvalues --   -0.08157  -0.00449   0.02535   0.07585   0.10009
 Alpha virt. eigenvalues --    0.10900   0.14115   0.14896   0.16424   0.18275
 Alpha virt. eigenvalues --    0.18589   0.20973   0.24281   0.24836   0.27436

 Mulliken charges:
               1
     1  N   -0.658267
     2  C    0.297295
     3  C   -0.131147
     4  C   -0.120983
     5  C    0.269743
     6  N    0.288648
     7  O   -0.569963
     8  O   -0.571336
     9  C   -0.118105
    10  C    0.253222
    11  N   -0.596066
    12  H    0.302675
    13  H    0.305731
    14  H    0.121984
    15  H    0.125689
    16  H    0.142861
    17  H    0.329977
    18  H    0.328041
 Sum of Mulliken charges =  -0.00000

 Dipole moment (field-independent basis, Debye):
    X=             17.1428    Y=              1.4009    Z=             -0.1882  Tot=             17.2010
 Quadrupole moment (field-independent basis, Debye-Ang):
   XX=            -71.2946   YY=            -50.0257   ZZ=            -63.7377
   XY=              5.3699   XZ=              0.7086   YZ=             -3.2732

 Summary of Natural Population Analysis:

                                       Natural Population
                Natural  -----------------------------------------------
    Atom  No    Charge         Core      Valence    Rydberg      Total
 -----------------------------------------------------------------------
      N    1   -0.79890      1.99948     5.78735    0.01207     7.79890
      C    2    0.14991      1.99898     3.83338    0.01772     5.85009
      C    3   -0.27406      1.99907     4.26174    0.01325     6.27406
      C    4   -0.23054      1.99903     4.21526    0.01624     6.23054
      C    5    0.07574      1.99884     3.90493    0.02049     5.92426
      N    6    0.39483      1.99953     4.55736    0.04828     6.60517
      O    7   -0.56365      1.99984     6.54935    0.01446     8.56365
      O    8   -0.56734      1.99984     6.55343    0.01408     8.56734
      C    9   -0.22995      1.99897     4.21590    0.01508     6.22995
      C   10    0.18778      1.99892     3.79689    0.01641     5.81222
      N   11   -0.70678      1.99948     5.69713    0.01017     7.70678
      H   12    0.42918      0.00000     0.56794    0.00287     0.57082
      H   13    0.43663      0.00000     0.56111    0.00226     0.56337
      H   14    0.25941      0.00000     0.73919    0.00140     0.74059
      H   15    0.27316      0.00000     0.72426    0.00259     0.72684
      H   16    0.27832      0.00000     0.71909    0.00260     0.72168
      H   17    0.44282      0.00000     0.55429    0.00289     0.55718
      H   18    0.44344      0.00000     0.55463    0.00194     0.55656
 =======================================================================
   * Total *    0.00000     21.99197    57.79322    0.21480    80.00000

 Normal termination of Gaussian 16 at Thu Jul 11 19:21:27 2024.
