 Gaussian 16, Revision A.03,

 -------------------------------------------------------
 # opt=CalcFc B3LYP/6-31G** SCRF=(Solvent=water) scf=xqc
 -------------------------------------------------------

 ----------------------------------
 APQPRKLAWCIJEK-UHFFFAOYSA-N_conf_2
 ----------------------------------
 Symbolic Z-matrix:
 Charge =  0 Multiplicity = 1

 SCF Done:  E(RB3LYP) =  -1065.54393755     A.U. after   12 cycles
 SCF Done:  E(RB3LYP) =  -1065.54828443     A.U. after   10 cycles
 SCF Done:  E(RB3LYP) =  -1065.54858163     A.U. after   10 cycles
 SCF Done:  E(RB3LYP) =  -1065.54861174     A.U. after    9 cycles
 SCF Done:  E(RB3LYP) =  -1065.54863172     A.U. after    8 cycles
 SCF Done:  E(RB3LYP) =  -1065.54863717     A.U. after    8 cycles
 SCF Done:  E(RB3LYP) =  -1065.54863842     A.U. after    8 cycles
 SCF Done:  E(RB3LYP) =  -1065.54863897     A.U. after    7 cycles
 SCF Done:  E(RB3LYP) =  -1065.54863905     A.U. after    6 cycles
 SCF Done:  E(RB3LYP) =  -1065.54863907     A.U. after    7 cycles
 Optimization completed.
    -- Stationary point found.
 Normal termination of Gaussian 16 at Thu Jul 11 17:40:25 2024.

 ----------------------------------------------------------------------
 # freq B3LYP/6-31G** SCRF=(Solvent=water) volume NMR pop=NPA density=c
 urrent Geom=AllCheck Guess=Read
 ----------------------------------------------------------------------

 Structure from the checkpoint file:  "APQPRKLAWCIJEK-UHFFFAOYSA-N_conf_2_1.chk"
 ----------------------------------
 APQPRKLAWCIJEK-UHFFFAOYSA-N_conf_2
 ----------------------------------
 Charge =  0 Multiplicity = 1

 SCF Done:  E(RB3LYP) =  -1065.54863907     A.U. after    1 cycles

      1  N    Isotropic =   233.9888   Anisotropy =    37.8294

      2  C    Isotropic =   143.0469   Anisotropy =    17.2857

      3  C    Isotropic =   144.9412   Anisotropy =    24.0082

      4  S    Isotropic =   403.2787   Anisotropy =   251.9751

      5  S    Isotropic =   422.1982   Anisotropy =   318.8199

      6  C    Isotropic =   144.7491   Anisotropy =    45.7554

      7  C    Isotropic =   146.1155   Anisotropy =    48.0291

      8  N    Isotropic =   234.6793   Anisotropy =    28.4273

      9  H    Isotropic =    31.0602   Anisotropy =    15.9194

     10  H    Isotropic =    30.6084   Anisotropy =    14.0858

     11  H    Isotropic =    28.3595   Anisotropy =     5.6428

     12  H    Isotropic =    28.6840   Anisotropy =     8.7905

     13  H    Isotropic =    29.2184   Anisotropy =    10.7081

     14  H    Isotropic =    28.8103   Anisotropy =     7.8919

     15  H    Isotropic =    29.1291   Anisotropy =     8.8611

     16  H    Isotropic =    29.1592   Anisotropy =     5.4091

     17  H    Isotropic =    28.5105   Anisotropy =     6.5634

     18  H    Isotropic =    29.1861   Anisotropy =     5.4384

     19  H    Isotropic =    30.8916   Anisotropy =    15.8734

     20  H    Isotropic =    31.4334   Anisotropy =    12.3446

  Exact polarizability: 142.758   4.265 110.731  15.967   1.390 111.732
 Approx polarizability: 152.114   5.606 122.631  22.181   3.799 132.631

                      1                      2                      3
                      A                      A                      A
 Frequencies --     35.0741                43.8179                80.5728
 Red. masses --      2.6560                 4.0722                 2.8993
 Frc consts  --      0.0019                 0.0046                 0.0111
 IR Inten    --      2.3536                 0.4085                 4.3321

                      4                      5                      6
                      A                      A                      A
 Frequencies --     91.6278               127.2412               186.1738
 Red. masses --      2.4011                 4.0559                 3.2588
 Frc consts  --      0.0119                 0.0387                 0.0666
 IR Inten    --      3.9177                 2.2085                 0.4874

                      7                      8                      9
                      A                      A                      A
 Frequencies --    195.8247               226.9261               243.3712
 Red. masses --      1.2193                 1.9899                 1.4990
 Frc consts  --      0.0275                 0.0604                 0.0523
 IR Inten    --     82.5461                19.9379                33.1940

                     10                     11                     12
                      A                      A                      A
 Frequencies --    270.2084               331.6430               388.3465
 Red. masses --      3.1675                 2.7264                 6.1694
 Frc consts  --      0.1363                 0.1767                 0.5482
 IR Inten    --     38.7338                16.8102                11.8601

                     13                     14                     15
                      A                      A                      A
 Frequencies --    430.6940               477.1998               618.7305
 Red. masses --      2.0624                14.6356                 4.4579
 Frc consts  --      0.2254                 1.9636                 1.0055
 IR Inten    --      6.4455                 0.8296                 3.6460

                     16                     17                     18
                      A                      A                      A
 Frequencies --    708.1627               770.9244               834.2467
 Red. masses --      3.8771                 1.2031                 1.8966
 Frc consts  --      1.1456                 0.4213                 0.7777
 IR Inten    --     22.9986                17.2911                34.7492

                     19                     20                     21
                      A                      A                      A
 Frequencies --    876.5615               884.6349               926.1789
 Red. masses --      1.2433                 1.3235                 1.9280
 Frc consts  --      0.5628                 0.6103                 0.9744
 IR Inten    --    158.8678               176.3436                24.3763

                     22                     23                     24
                      A                      A                      A
 Frequencies --    967.9509              1024.1893              1038.7973
 Red. masses --      1.8931                 2.0288                 2.3022
 Frc consts  --      1.0450                 1.2538                 1.4637
 IR Inten    --      4.0083                36.2519                36.2842

                     25                     26                     27
                      A                      A                      A
 Frequencies --   1089.7003              1116.7514              1149.1792
 Red. masses --      1.9630                 2.3798                 1.2322
 Frc consts  --      1.3734                 1.7486                 0.9587
 IR Inten    --     21.3381                 6.6571                 4.1316

                     28                     29                     30
                      A                      A                      A
 Frequencies --   1169.9810              1208.5187              1243.7222
 Red. masses --      1.0969                 1.1724                 1.2745
 Frc consts  --      0.8846                 1.0089                 1.1615
 IR Inten    --      1.8508                 5.3714                10.4610

                     31                     32                     33
                      A                      A                      A
 Frequencies --   1302.1659              1313.5113              1342.4966
 Red. masses --      1.3022                 1.2592                 1.1430
 Frc consts  --      1.3009                 1.2800                 1.2137
 IR Inten    --     31.7430                 8.1680                 5.3545

                     34                     35                     36
                      A                      A                      A
 Frequencies --   1345.0405              1424.7978              1430.6345
 Red. masses --      1.1656                 1.3715                 1.2907
 Frc consts  --      1.2424                 1.6404                 1.5564
 IR Inten    --     20.5974                12.2288                 6.8711

                     37                     38                     39
                      A                      A                      A
 Frequencies --   1446.0999              1463.1810              1514.2628
 Red. masses --      1.1733                 1.1062                 1.0832
 Frc consts  --      1.4456                 1.3953                 1.4634
 IR Inten    --     20.7091                 5.2949                 3.6228

                     40                     41                     42
                      A                      A                      A
 Frequencies --   1517.5673              1653.2953              1655.7493
 Red. masses --      1.0867                 1.0870                 1.0875
 Frc consts  --      1.4746                 1.7505                 1.7565
 IR Inten    --      2.2061                44.0212                34.1855

                     43                     44                     45
                      A                      A                      A
 Frequencies --   2984.0171              2990.3728              3051.3126
 Red. masses --      1.0699                 1.0700                 1.0865
 Frc consts  --      5.6132                 5.6376                 5.9601
 IR Inten    --     90.3269                72.9323                32.8967

                     46                     47                     48
                      A                      A                      A
 Frequencies --   3062.2429              3066.4078              3081.7164
 Red. masses --      1.0584                 1.0675                 1.0926
 Frc consts  --      5.8475                 5.9138                 6.1136
 IR Inten    --     23.1979                35.2691                34.6531

                     49                     50                     51
                      A                      A                      A
 Frequencies --   3120.8932              3129.7863              3483.6956
 Red. masses --      1.1074                 1.1042                 1.0510
 Frc consts  --      6.3550                 6.3727                 7.5153
 IR Inten    --     22.7113                12.2602                 0.7658

                     52                     53                     54
                      A                      A                      A
 Frequencies --   3496.2991              3563.2378              3577.9353
 Red. masses --      1.0507                 1.0916                 1.0916
 Frc consts  --      7.5673                 8.1660                 8.2334
 IR Inten    --      2.2203                 0.3378                 4.0332

 - Thermochemistry -
 -------------------
 Temperature   298.150 Kelvin.  Pressure   1.00000 Atm.
 Atom     1 has atomic number  7 and mass  14.00307

 Molecular mass:   152.04419 amu.
 Principal axes and moments of inertia in atomic units:
                           1         2         3
     Eigenvalues --   964.228192413.459692748.26599
           X            0.99995  -0.00860  -0.00503
           Y            0.00857   0.99994  -0.00611
           Z            0.00509   0.00607   0.99997
 This molecule is an asymmetric top.
 Rotational symmetry number  1.
 Warning -- assumption of classical behavior for rotation
           may cause significant error
 Rotational temperatures (Kelvin)      0.08983     0.03589     0.03152
 Rotational constants (GHZ):           1.87170     0.74778     0.65668
 Zero-point vibrational energy     447245.9 (Joules/Mol)
                                  106.89433 (Kcal/Mol)
 Warning -- explicit consideration of  15 degrees of freedom as
           vibrations may cause significant error
 Vibrational temperatures:     50.46    63.04   115.93   131.83   183.07
          (Kelvin)            267.86   281.75   326.50   350.16   388.77
                              477.16   558.74   619.67   686.58   890.22
                             1018.89  1109.19  1200.29  1261.18  1272.79
                             1332.56  1392.67  1473.58  1494.60  1567.84
                             1606.76  1653.41  1683.34  1738.79  1789.44
                             1873.53  1889.85  1931.55  1935.21  2049.97
                             2058.36  2080.62  2105.19  2178.69  2183.44
                             2378.72  2382.25  4293.34  4302.48  4390.16
                             4405.88  4411.88  4433.90  4490.27  4503.06
                             5012.26  5030.39  5126.70  5147.85

 Zero-point correction=                           0.170347 (Hartree/Particle)
 Thermal correction to Energy=                    0.181837
 Thermal correction to Enthalpy=                  0.182781
 Thermal correction to Gibbs Free Energy=         0.131394
 Sum of electronic and zero-point Energies=          -1065.378292
 Sum of electronic and thermal Energies=             -1065.366802
 Sum of electronic and thermal Enthalpies=           -1065.365858
 Sum of electronic and thermal Free Energies=        -1065.417245

                     E (Thermal)             CV                S
                      KCal/Mol        Cal/Mol-Kelvin    Cal/Mol-Kelvin
 Total                  114.104             38.848            108.154
 Electronic               0.000              0.000              0.000
 Translational            0.889              2.981             40.967
 Rotational               0.889              2.981             30.237
 Vibrational            112.327             32.886             36.949
 Vibration     1          0.594              1.982              5.520
 Vibration     2          0.595              1.980              5.079
 Vibration     3          0.600              1.962              3.877
 Vibration     4          0.602              1.955              3.625
 Vibration     5          0.611              1.926              2.987
 Vibration     6          0.632              1.859              2.266
 Vibration     7          0.636              1.846              2.172
 Vibration     8          0.651              1.800              1.903
 Vibration     9          0.659              1.774              1.778
 Vibration    10          0.674              1.728              1.595
 Vibration    11          0.714              1.612              1.252
 Vibration    12          0.757              1.495              1.006
 Vibration    13          0.792              1.403              0.856
 Vibration    14          0.834              1.301              0.718
 Vibration    15          0.979              0.992              0.419

 Optimization completed.
    -- Stationary point found.
 Normal termination of Gaussian 16 at Thu Jul 11 17:53:29 2024.
 Gaussian 16:  EM64L-G16RevA.03 25-Dec-2016

 ----------------------------------------------------------------------
 # TD(NStates=10, Root=1) B3LYP/6-31G** SCRF=(Solvent=water) volume pop
 =NPA density=current Geom=AllCheck Guess=Read
 ----------------------------------------------------------------------

 Structure from the checkpoint file:  "APQPRKLAWCIJEK-UHFFFAOYSA-N_conf_2_2.chk"
 ----------------------------------
 APQPRKLAWCIJEK-UHFFFAOYSA-N_conf_2
 ----------------------------------
 Charge =  0 Multiplicity = 1

                         Standard orientation:
 ---------------------------------------------------------------------
 Center     Atomic      Atomic             Coordinates (Angstroms)
 Number     Number       Type             X           Y           Z
 ---------------------------------------------------------------------
      1          7           0       -2.055386    1.791748    0.720907
      2          6           0       -2.358905    1.155070   -0.567518
      3          6           0       -2.404838   -0.368754   -0.450549
      4         16           0       -0.812517   -1.291331   -0.639007
      5         16           0        0.316612   -0.919286    1.085091
      6          6           0        1.501538    0.407196    0.592916
      7          6           0        2.610029   -0.071371   -0.343979
      8          7           0        3.527709    1.042220   -0.622013
      9          1           0       -2.045009    2.801924    0.595580
     10          1           0       -1.115917    1.541154    1.019601
     11          1           0       -1.677895    1.432323   -1.387996
     12          1           0       -3.360570    1.488360   -0.866806
     13          1           0       -2.987224   -0.792381   -1.276564
     14          1           0       -2.880197   -0.667850    0.486951
     15          1           0        1.926460    0.751874    1.541742
     16          1           0        0.943259    1.240241    0.154998
     17          1           0        2.155349   -0.512763   -1.244715
     18          1           0        3.174878   -0.867459    0.152450
     19          1           0        4.333040    0.686103   -1.132792
     20          1           0        3.075113    1.697723   -1.257281
 ---------------------------------------------------------------------

 SCF Done:  E(RB3LYP) =  -1065.54863907     A.U. after    1 cycles

 Excitation energies and oscillator strengths:

 Excited State   1:      Singlet-A      4.4723 eV  277.23 nm  f=0.0009  <S**2>=0.000
      39 -> 42        -0.16485
      40 -> 42        -0.47334
      41 -> 42         0.49472
 This state for optimization and/or second-order correction.
 Total Energy, E(TD-HF/TD-DFT) =  -1065.38428427
 Copying the excited state density for this state as the 1-particle RhoCI density.

 Excited State   2:      Singlet-A      4.7157 eV  262.92 nm  f=0.0123  <S**2>=0.000
      38 -> 42        -0.38576
      40 -> 42         0.42357
      41 -> 42         0.40708

 Excited State   3:      Singlet-A      4.9980 eV  248.07 nm  f=0.0070  <S**2>=0.000
      39 -> 42         0.68519
      40 -> 42        -0.15122

 Excited State   4:      Singlet-A      5.2290 eV  237.11 nm  f=0.0034  <S**2>=0.000
      38 -> 42         0.58698
      40 -> 42         0.26653
      41 -> 42         0.28346

 Excited State   5:      Singlet-A      6.3135 eV  196.38 nm  f=0.0023  <S**2>=0.000
      38 -> 44        -0.11948
      39 -> 43        -0.14242
      40 -> 43        -0.37787
      41 -> 43         0.53876
      41 -> 44         0.13298

 Excited State   6:      Singlet-A      6.4267 eV  192.92 nm  f=0.0173  <S**2>=0.000
      37 -> 42        -0.11631
      38 -> 43        -0.26052
      40 -> 43         0.48746
      40 -> 44        -0.26074
      41 -> 43         0.28020
      41 -> 44         0.11242

 Excited State   7:      Singlet-A      6.5963 eV  187.96 nm  f=0.0082  <S**2>=0.000
      39 -> 43         0.66922
      39 -> 44         0.12489
      40 -> 43        -0.14555

 Excited State   8:      Singlet-A      6.6452 eV  186.58 nm  f=0.0710  <S**2>=0.000
      37 -> 42         0.20566
      38 -> 43        -0.14784
      40 -> 43        -0.15049
      40 -> 44        -0.22366
      41 -> 43        -0.25189
      41 -> 44         0.53193

 Excited State   9:      Singlet-A      6.7573 eV  183.48 nm  f=0.0215  <S**2>=0.000
      37 -> 42        -0.37648
      38 -> 43        -0.37497
      39 -> 44         0.10280
      40 -> 44         0.39589
      41 -> 43        -0.12803
      41 -> 44         0.15113

 Excited State  10:      Singlet-A      6.9159 eV  179.27 nm  f=0.0907  <S**2>=0.000
      37 -> 42         0.24493
      38 -> 43         0.23708
      38 -> 44        -0.29306
      40 -> 43         0.25089
      40 -> 44         0.36343
      41 -> 43         0.10827
      41 -> 44         0.26212

 The electronic state is 1-A.
 Alpha  occ. eigenvalues --  -88.89713 -88.89611 -14.31555 -14.31443 -10.21881
 Alpha  occ. eigenvalues --  -10.21845 -10.21462 -10.21319  -7.95832  -7.95724
 Alpha  occ. eigenvalues --   -5.92389  -5.92293  -5.91936  -5.91818  -5.91263
 Alpha  occ. eigenvalues --   -5.91153  -0.88367  -0.88185  -0.81606  -0.76848
 Alpha  occ. eigenvalues --   -0.70904  -0.64809  -0.60621  -0.56931  -0.49496
 Alpha  occ. eigenvalues --   -0.48981  -0.47486  -0.45881  -0.44077  -0.41717
 Alpha  occ. eigenvalues --   -0.40294  -0.39061  -0.38388  -0.36342  -0.36027
 Alpha  occ. eigenvalues --   -0.34818  -0.31760  -0.25572  -0.24228  -0.24052
 Alpha  occ. eigenvalues --   -0.23876
 Alpha virt. eigenvalues --   -0.03030   0.03179   0.04569   0.07454   0.09516
 Alpha virt. eigenvalues --    0.11529   0.12597   0.14154   0.14465   0.15675
 Alpha virt. eigenvalues --    0.16059   0.16564   0.18445   0.19348   0.20442

 Mulliken charges:
               1
     1  N   -0.635410
     2  C   -0.054492
     3  C   -0.326166
     4  S   -0.058675
     5  S   -0.069941
     6  C   -0.325005
     7  C   -0.053270
     8  N   -0.638840
     9  H    0.263054
    10  H    0.256615
    11  H    0.111419
    12  H    0.139489
    13  H    0.165508
    14  H    0.152386
    15  H    0.166626
    16  H    0.153235
    17  H    0.109102
    18  H    0.124013
    19  H    0.261821
    20  H    0.258531
 Sum of Mulliken charges =  -0.00000

 Dipole moment (field-independent basis, Debye):
    X=              0.3306    Y=              2.8884    Z=             -3.1477  Tot=              4.2849
 Quadrupole moment (field-independent basis, Debye-Ang):
   XX=            -59.8203   YY=            -63.3877   ZZ=            -69.6346
   XY=             -2.8108   XZ=             -1.9082   YZ=             -3.4609

 Summary of Natural Population Analysis:

                                       Natural Population
                Natural  -----------------------------------------------
    Atom  No    Charge         Core      Valence    Rydberg      Total
 -----------------------------------------------------------------------
      N    1   -0.92495      1.99968     5.90975    0.01552     7.92495
      C    2   -0.27748      1.99929     4.26282    0.01536     6.27748
      C    3   -0.61385      1.99926     4.60069    0.01391     6.61385
      S    4    0.02999      9.99930     5.91011    0.06060    15.97001
      S    5    0.03931      9.99928     5.89948    0.06193    15.96069
      C    6   -0.60925      1.99927     4.59507    0.01492     6.60925
      C    7   -0.27826      1.99932     4.26332    0.01562     6.27826
      N    8   -0.92553      1.99967     5.91044    0.01541     7.92553
      H    9    0.39865      0.00000     0.59890    0.00245     0.60135
      H   10    0.38145      0.00000     0.61505    0.00349     0.61855
      H   11    0.22029      0.00000     0.77661    0.00309     0.77971
      H   12    0.25660      0.00000     0.74137    0.00203     0.74340
      H   13    0.27787      0.00000     0.71996    0.00217     0.72213
      H   14    0.25856      0.00000     0.73663    0.00481     0.74144
      H   15    0.27522      0.00000     0.72202    0.00276     0.72478
      H   16    0.25108      0.00000     0.74484    0.00408     0.74892
      H   17    0.21552      0.00000     0.78172    0.00276     0.78448
      H   18    0.23842      0.00000     0.75913    0.00244     0.76158
      H   19    0.39734      0.00000     0.60012    0.00254     0.60266
      H   20    0.38901      0.00000     0.60820    0.00279     0.61099
 =======================================================================
   * Total *    0.00000     31.99506    49.75624    0.24869    82.00000

 Normal termination of Gaussian 16 at Thu Jul 11 18:09:34 2024.
