 Gaussian 16, Revision A.03,

 -------------------------------------------------------
 # opt=CalcFc B3LYP/6-31G** SCRF=(Solvent=water) scf=xqc
 -------------------------------------------------------

 ----------------------------------
 APQPRKLAWCIJEK-UHFFFAOYSA-N_conf_1
 ----------------------------------
 Symbolic Z-matrix:
 Charge =  0 Multiplicity = 1

 SCF Done:  E(RB3LYP) =  -1065.54740350     A.U. after   11 cycles
 SCF Done:  E(RB3LYP) =  -1065.55038247     A.U. after   10 cycles
 SCF Done:  E(RB3LYP) =  -1065.55065842     A.U. after   12 cycles
 SCF Done:  E(RB3LYP) =  -1065.55064900     A.U. after   10 cycles
 SCF Done:  E(RB3LYP) =  -1065.55068798     A.U. after   10 cycles
 SCF Done:  E(RB3LYP) =  -1065.55069240     A.U. after    9 cycles
 SCF Done:  E(RB3LYP) =  -1065.55069276     A.U. after    9 cycles
 SCF Done:  E(RB3LYP) =  -1065.55069369     A.U. after    8 cycles
 SCF Done:  E(RB3LYP) =  -1065.55069360     A.U. after    7 cycles
 SCF Done:  E(RB3LYP) =  -1065.55069369     A.U. after    7 cycles
 Optimization completed.
    -- Stationary point found.
 Normal termination of Gaussian 16 at Thu Jul 11 17:39:00 2024.

 ----------------------------------------------------------------------
 # freq B3LYP/6-31G** SCRF=(Solvent=water) volume NMR pop=NPA density=c
 urrent Geom=AllCheck Guess=Read
 ----------------------------------------------------------------------

 Structure from the checkpoint file:  "APQPRKLAWCIJEK-UHFFFAOYSA-N_conf_1_1.chk"
 ----------------------------------
 APQPRKLAWCIJEK-UHFFFAOYSA-N_conf_1
 ----------------------------------
 Charge =  0 Multiplicity = 1

 SCF Done:  E(RB3LYP) =  -1065.55069369     A.U. after    1 cycles

      1  N    Isotropic =   233.9617   Anisotropy =    25.1494

      2  C    Isotropic =   150.1139   Anisotropy =    26.9346

      3  C    Isotropic =   143.2963   Anisotropy =    42.9201

      4  S    Isotropic =   435.0038   Anisotropy =   394.1926

      5  S    Isotropic =   455.9379   Anisotropy =   398.3705

      6  C    Isotropic =   139.2431   Anisotropy =    43.6484

      7  C    Isotropic =   149.6914   Anisotropy =    28.4117

      8  N    Isotropic =   235.2838   Anisotropy =    34.4178

      9  H    Isotropic =    31.1010   Anisotropy =    10.5445

     10  H    Isotropic =    31.0034   Anisotropy =    16.1611

     11  H    Isotropic =    28.6973   Anisotropy =     7.7381

     12  H    Isotropic =    28.9718   Anisotropy =     8.7844

     13  H    Isotropic =    28.7830   Anisotropy =     6.1404

     14  H    Isotropic =    28.7640   Anisotropy =     7.4329

     15  H    Isotropic =    28.3027   Anisotropy =     6.1968

     16  H    Isotropic =    29.3487   Anisotropy =     5.6268

     17  H    Isotropic =    29.2379   Anisotropy =     7.5650

     18  H    Isotropic =    28.8479   Anisotropy =     8.9622

     19  H    Isotropic =    31.4870   Anisotropy =    13.2204

     20  H    Isotropic =    30.6226   Anisotropy =    10.9651

  Exact polarizability: 158.722   2.413 104.882   2.338   0.666 102.225
 Approx polarizability: 167.094   0.835 119.182   5.719   1.050 117.760

                      1                      2                      3
                      A                      A                      A
 Frequencies --     19.8207                26.4991                61.8093
 Red. masses --      3.5596                 4.2400                 3.2935
 Frc consts  --      0.0008                 0.0018                 0.0074
 IR Inten    --      1.1040                 1.2113                 3.3882

                      4                      5                      6
                      A                      A                      A
 Frequencies --    126.7157               129.3179               162.7116
 Red. masses --      2.9036                 4.0457                 2.7117
 Frc consts  --      0.0275                 0.0399                 0.0423
 IR Inten    --      5.1503                 1.7372                11.9109

                      7                      8                      9
                      A                      A                      A
 Frequencies --    173.1084               203.3940               241.8477
 Red. masses --      3.1651                 1.6107                 1.8551
 Frc consts  --      0.0559                 0.0393                 0.0639
 IR Inten    --      9.7690                47.6376                46.7721

                     10                     11                     12
                      A                      A                      A
 Frequencies --    297.8649               321.1721               437.0696
 Red. masses --      1.8285                 1.6324                 2.5489
 Frc consts  --      0.0956                 0.0992                 0.2869
 IR Inten    --     14.2837                52.2396                23.0220

                     13                     14                     15
                      A                      A                      A
 Frequencies --    457.5961               524.8658               644.1913
 Red. masses --      2.5252                12.4111                 3.3966
 Frc consts  --      0.3115                 2.0145                 0.8305
 IR Inten    --      1.8315                 1.4431                 0.6369

                     16                     17                     18
                      A                      A                      A
 Frequencies --    649.6506               842.1393               849.1800
 Red. masses --      3.7467                 1.7494                 1.8244
 Frc consts  --      0.9317                 0.7310                 0.7751
 IR Inten    --      4.3166                11.7107                29.0699

                     19                     20                     21
                      A                      A                      A
 Frequencies --    873.4516               887.1652               918.3217
 Red. masses --      1.8158                 1.2777                 1.3916
 Frc consts  --      0.8162                 0.5925                 0.6914
 IR Inten    --    196.0493               126.4809                96.9770

                     22                     23                     24
                      A                      A                      A
 Frequencies --    924.0582              1009.5970              1030.1156
 Red. masses --      1.8271                 1.9545                 1.7645
 Frc consts  --      0.9192                 1.1737                 1.1031
 IR Inten    --     31.0107                94.2333                33.0288

                     25                     26                     27
                      A                      A                      A
 Frequencies --   1083.4923              1113.2136              1145.1840
 Red. masses --      1.6314                 2.1377                 1.3675
 Frc consts  --      1.1284                 1.5608                 1.0566
 IR Inten    --      6.2078                16.3475                 2.1392

                     28                     29                     30
                      A                      A                      A
 Frequencies --   1162.1735              1197.7269              1235.2970
 Red. masses --      1.1471                 1.2315                 1.2881
 Frc consts  --      0.9128                 1.0409                 1.1581
 IR Inten    --      1.1991                10.8905                15.1424

                     31                     32                     33
                      A                      A                      A
 Frequencies --   1300.0512              1303.4671              1349.4687
 Red. masses --      1.3069                 1.3177                 1.1537
 Frc consts  --      1.3014                 1.3191                 1.2379
 IR Inten    --     43.5155                30.1753                 8.6857

                     34                     35                     36
                      A                      A                      A
 Frequencies --   1388.6694              1398.9879              1428.0324
 Red. masses --      1.2650                 1.1755                 1.3939
 Frc consts  --      1.4373                 1.3555                 1.6748
 IR Inten    --     43.0132                 2.4857                27.7517

                     37                     38                     39
                      A                      A                      A
 Frequencies --   1469.5914              1476.3419              1489.6727
 Red. masses --      1.1048                 1.0945                 1.0859
 Frc consts  --      1.4058                 1.4055                 1.4198
 IR Inten    --     32.8586                13.9563                 2.6903

                     40                     41                     42
                      A                      A                      A
 Frequencies --   1512.0859              1657.1433              1664.5461
 Red. masses --      1.0824                 1.0864                 1.0877
 Frc consts  --      1.4580                 1.7577                 1.7757
 IR Inten    --      4.1775                54.0937                32.9354

                     43                     44                     45
                      A                      A                      A
 Frequencies --   2973.0126              3041.6726              3067.9893
 Red. masses --      1.0722                 1.0601                 1.0624
 Frc consts  --      5.5837                 5.7788                 5.8919
 IR Inten    --    101.9626                49.8524                13.0585

                     46                     47                     48
                      A                      A                      A
 Frequencies --   3069.0100              3083.7327              3085.9549
 Red. masses --      1.0859                 1.0996                 1.0610
 Frc consts  --      6.0262                 6.1606                 5.9531
 IR Inten    --     16.9228                48.9134                41.6235

                     49                     50                     51
                      A                      A                      A
 Frequencies --   3132.9028              3150.1977              3485.8661
 Red. masses --      1.1099                 1.1107                 1.0501
 Frc consts  --      6.4185                 6.4943                 7.5177
 IR Inten    --     24.7002                17.2984                 0.1101

                     52                     53                     54
                      A                      A                      A
 Frequencies --   3489.2393              3565.7344              3566.6457
 Red. masses --      1.0511                 1.0921                 1.0915
 Frc consts  --      7.5394                 8.1808                 8.1810
 IR Inten    --      0.1476                 0.7351                 0.4904

 - Thermochemistry -
 -------------------
 Temperature   298.150 Kelvin.  Pressure   1.00000 Atm.
 Atom     1 has atomic number  7 and mass  14.00307

 Molecular mass:   152.04419 amu.
 Principal axes and moments of inertia in atomic units:
                           1         2         3
     Eigenvalues --   521.111913439.062973615.26581
           X            0.99998   0.00484  -0.00347
           Y           -0.00494   0.99958  -0.02858
           Z            0.00333   0.02859   0.99959
 This molecule is an asymmetric top.
 Rotational symmetry number  1.
 Warning -- assumption of classical behavior for rotation
           may cause significant error
 Rotational temperatures (Kelvin)      0.16621     0.02519     0.02396
 Rotational constants (GHZ):           3.46325     0.52478     0.49920
 Zero-point vibrational energy     447994.1 (Joules/Mol)
                                  107.07316 (Kcal/Mol)
 Warning -- explicit consideration of  14 degrees of freedom as
           vibrations may cause significant error
 Vibrational temperatures:     28.52    38.13    88.93   182.32   186.06
          (Kelvin)            234.11   249.06   292.64   347.96   428.56
                              462.10   628.85   658.38   755.16   926.85
                              934.70  1211.65  1221.78  1256.70  1276.43
                             1321.26  1329.51  1452.58  1482.11  1558.90
                             1601.67  1647.66  1672.11  1723.26  1777.32
                             1870.48  1875.40  1941.58  1997.99  2012.83
                             2054.62  2114.41  2124.13  2143.31  2175.55
                             2384.26  2394.91  4277.50  4376.29  4414.15
                             4415.62  4436.80  4440.00  4507.55  4532.43
                             5015.38  5020.24  5130.30  5131.61

 Zero-point correction=                           0.170632 (Hartree/Particle)
 Thermal correction to Energy=                    0.182149
 Thermal correction to Enthalpy=                  0.183093
 Thermal correction to Gibbs Free Energy=         0.130653
 Sum of electronic and zero-point Energies=          -1065.380062
 Sum of electronic and thermal Energies=             -1065.368544
 Sum of electronic and thermal Enthalpies=           -1065.367600
 Sum of electronic and thermal Free Energies=        -1065.420041

                     E (Thermal)             CV                S
                      KCal/Mol        Cal/Mol-Kelvin    Cal/Mol-Kelvin
 Total                  114.300             38.664            110.370
 Electronic               0.000              0.000              0.000
 Translational            0.889              2.981             40.967
 Rotational               0.889              2.981             30.250
 Vibrational            112.523             32.702             39.153
 Vibration     1          0.593              1.986              6.652
 Vibration     2          0.593              1.984              6.076
 Vibration     3          0.597              1.973              4.399
 Vibration     4          0.611              1.926              2.995
 Vibration     5          0.612              1.924              2.956
 Vibration     6          0.623              1.888              2.518
 Vibration     7          0.627              1.876              2.401
 Vibration     8          0.639              1.835              2.102
 Vibration     9          0.658              1.776              1.789
 Vibration    10          0.691              1.678              1.429
 Vibration    11          0.707              1.633              1.304
 Vibration    12          0.797              1.389              0.836
 Vibration    13          0.816              1.344              0.773
 Vibration    14          0.880              1.195              0.599

 Optimization completed.
    -- Stationary point found.
 Normal termination of Gaussian 16 at Thu Jul 11 17:50:46 2024.
 Gaussian 16:  EM64L-G16RevA.03 25-Dec-2016

 ----------------------------------------------------------------------
 # TD(NStates=10, Root=1) B3LYP/6-31G** SCRF=(Solvent=water) volume pop
 =NPA density=current Geom=AllCheck Guess=Read
 ----------------------------------------------------------------------

 Structure from the checkpoint file:  "APQPRKLAWCIJEK-UHFFFAOYSA-N_conf_1_2.chk"
 ----------------------------------
 APQPRKLAWCIJEK-UHFFFAOYSA-N_conf_1
 ----------------------------------
 Charge =  0 Multiplicity = 1

                         Standard orientation:
 ---------------------------------------------------------------------
 Center     Atomic      Atomic             Coordinates (Angstroms)
 Number     Number       Type             X           Y           Z
 ---------------------------------------------------------------------
      1          7           0       -3.457895    1.334927   -0.394782
      2          6           0       -3.411758    0.041226    0.298748
      3          6           0       -2.003179   -0.283042    0.798439
      4         16           0       -0.898409   -0.689659   -0.637242
      5         16           0        0.982219   -0.902693    0.228598
      6          6           0        1.663740    0.821535    0.267844
      7          6           0        3.183634    0.782909    0.506287
      8          7           0        4.010902    0.239727   -0.570866
      9          1           0       -2.986983    1.254560   -1.294167
     10          1           0       -4.427109    1.551115   -0.618466
     11          1           0       -3.792113   -0.805815   -0.296327
     12          1           0       -4.054250    0.110000    1.184105
     13          1           0       -1.585360    0.578542    1.323357
     14          1           0       -2.020728   -1.147872    1.464974
     15          1           0        1.164478    1.375924    1.067210
     16          1           0        1.434475    1.295085   -0.690577
     17          1           0        3.398864    0.223934    1.424985
     18          1           0        3.499687    1.815765    0.695739
     19          1           0        3.822493    0.751310   -1.431376
     20          1           0        3.739913   -0.723259   -0.759528
 ---------------------------------------------------------------------

 SCF Done:  E(RB3LYP) =  -1065.55069369     A.U. after    1 cycles

 Excitation energies and oscillator strengths:

 Excited State   1:      Singlet-A      4.4534 eV  278.40 nm  f=0.0056  <S**2>=0.000
      38 -> 42         0.17563
      40 -> 42         0.29119
      41 -> 42         0.61650
 This state for optimization and/or second-order correction.
 Total Energy, E(TD-HF/TD-DFT) =  -1065.38703398
 Copying the excited state density for this state as the 1-particle RhoCI density.

 Excited State   2:      Singlet-A      4.5616 eV  271.80 nm  f=0.0020  <S**2>=0.000
      38 -> 42        -0.28490
      40 -> 42         0.60339
      41 -> 42        -0.20407

 Excited State   3:      Singlet-A      5.0012 eV  247.91 nm  f=0.0035  <S**2>=0.000
      39 -> 42         0.68185
      40 -> 42        -0.12623

 Excited State   4:      Singlet-A      5.0869 eV  243.73 nm  f=0.0094  <S**2>=0.000
      38 -> 42         0.61251
      39 -> 42         0.15387
      40 -> 42         0.17687
      41 -> 42        -0.25973

 Excited State   5:      Singlet-A      6.4423 eV  192.45 nm  f=0.0031  <S**2>=0.000
      38 -> 43        -0.11727
      38 -> 44         0.26029
      41 -> 43        -0.28229
      41 -> 44         0.56625

 Excited State   6:      Singlet-A      6.4863 eV  191.15 nm  f=0.0011  <S**2>=0.000
      40 -> 43         0.47760
      40 -> 44         0.37706
      41 -> 43         0.28377
      41 -> 44         0.15187

 Excited State   7:      Singlet-A      6.6791 eV  185.63 nm  f=0.0797  <S**2>=0.000
      37 -> 42        -0.22133
      39 -> 43        -0.12179
      39 -> 44        -0.10615
      40 -> 43        -0.15347
      40 -> 44        -0.26849
      41 -> 43         0.49589
      41 -> 44         0.26611

 Excited State   8:      Singlet-A      6.7866 eV  182.69 nm  f=0.0143  <S**2>=0.000
      37 -> 42         0.23511
      39 -> 44        -0.18045
      40 -> 43        -0.42518
      40 -> 44         0.43058
      41 -> 43         0.17376

 Excited State   9:      Singlet-A      6.8534 eV  180.91 nm  f=0.0107  <S**2>=0.000
      38 -> 44        -0.26077
      39 -> 43        -0.40137
      39 -> 44         0.48527
      41 -> 44         0.10243

 Excited State  10:      Singlet-A      6.9477 eV  178.45 nm  f=0.0472  <S**2>=0.000
      37 -> 42        -0.18655
      38 -> 43         0.51500
      38 -> 44         0.25245
      39 -> 43         0.19417
      39 -> 44         0.24817
      40 -> 44         0.15982

 The electronic state is 1-A.
 Alpha  occ. eigenvalues --  -88.89506 -88.89498 -14.31626 -14.31537 -10.21835
 Alpha  occ. eigenvalues --  -10.21809 -10.21606 -10.21536  -7.95631  -7.95622
 Alpha  occ. eigenvalues --   -5.92201  -5.92184  -5.91734  -5.91730  -5.91059
 Alpha  occ. eigenvalues --   -5.91046  -0.88566  -0.88413  -0.81513  -0.76333
 Alpha  occ. eigenvalues --   -0.71244  -0.64749  -0.60120  -0.57283  -0.49966
 Alpha  occ. eigenvalues --   -0.48938  -0.47579  -0.45361  -0.43470  -0.42383
 Alpha  occ. eigenvalues --   -0.40187  -0.39307  -0.38614  -0.37474  -0.35349
 Alpha  occ. eigenvalues --   -0.33828  -0.32410  -0.25107  -0.24428  -0.24301
 Alpha  occ. eigenvalues --   -0.23754
 Alpha virt. eigenvalues --   -0.03189   0.04080   0.04126   0.08914   0.10066
 Alpha virt. eigenvalues --    0.11233   0.12964   0.13632   0.14238   0.15924
 Alpha virt. eigenvalues --    0.16763   0.16871   0.18102   0.18423   0.19078

 Mulliken charges:
               1
     1  N   -0.628801
     2  C   -0.046335
     3  C   -0.324931
     4  S    0.014312
     5  S   -0.153918
     6  C   -0.316273
     7  C   -0.052889
     8  N   -0.613049
     9  H    0.250305
    10  H    0.259124
    11  H    0.102402
    12  H    0.115558
    13  H    0.159287
    14  H    0.172629
    15  H    0.153346
    16  H    0.150606
    17  H    0.122197
    18  H    0.119986
    19  H    0.256911
    20  H    0.259530
 Sum of Mulliken charges =   0.00000

 Dipole moment (field-independent basis, Debye):
    X=             -3.2141    Y=              1.8404    Z=             -0.0436  Tot=              3.7039
 Quadrupole moment (field-independent basis, Debye-Ang):
   XX=            -65.9620   YY=            -67.4378   ZZ=            -61.8302
   XY=              5.0244   XZ=             -2.2459   YZ=             -2.4306

 Summary of Natural Population Analysis:

                                       Natural Population
                Natural  -----------------------------------------------
    Atom  No    Charge         Core      Valence    Rydberg      Total
 -----------------------------------------------------------------------
      N    1   -0.92668      1.99967     5.91152    0.01548     7.92668
      C    2   -0.28100      1.99933     4.26387    0.01780     6.28100
      C    3   -0.61172      1.99925     4.59811    0.01436     6.61172
      S    4    0.15149      9.99928     5.78886    0.06037    15.84851
      S    5   -0.09288      9.99932     6.03686    0.05670    16.09288
      C    6   -0.59984      1.99928     4.58789    0.01267     6.59984
      C    7   -0.28160      1.99933     4.26282    0.01945     6.28160
      N    8   -0.90073      1.99968     5.88601    0.01504     7.90073
      H    9    0.38317      0.00000     0.61199    0.00484     0.61683
      H   10    0.39525      0.00000     0.60218    0.00256     0.60475
      H   11    0.21647      0.00000     0.77980    0.00373     0.78353
      H   12    0.23928      0.00000     0.75713    0.00359     0.76072
      H   13    0.26084      0.00000     0.73483    0.00433     0.73916
      H   14    0.27818      0.00000     0.71886    0.00296     0.72182
      H   15    0.26113      0.00000     0.73582    0.00305     0.73887
      H   16    0.25109      0.00000     0.74408    0.00483     0.74891
      H   17    0.23822      0.00000     0.75841    0.00337     0.76178
      H   18    0.24165      0.00000     0.75498    0.00337     0.75835
      H   19    0.38766      0.00000     0.60933    0.00301     0.61234
      H   20    0.38998      0.00000     0.60618    0.00383     0.61002
 =======================================================================
   * Total *   -0.00000     31.99514    49.74952    0.25534    82.00000

 Normal termination of Gaussian 16 at Thu Jul 11 18:05:06 2024.
