 Gaussian 16, Revision A.03,

 -------------------------------------------------------
 # opt=CalcFc B3LYP/6-31G** SCRF=(Solvent=water) scf=xqc
 -------------------------------------------------------

 ----------------------------------
 APQPRKLAWCIJEK-UHFFFAOYSA-N_conf_0
 ----------------------------------
 Symbolic Z-matrix:
 Charge =  0 Multiplicity = 1

 SCF Done:  E(RB3LYP) =  -1065.54756147     A.U. after   11 cycles
 SCF Done:  E(RB3LYP) =  -1065.55114329     A.U. after   10 cycles
 SCF Done:  E(RB3LYP) =  -1065.55135445     A.U. after    9 cycles
 SCF Done:  E(RB3LYP) =  -1065.55136366     A.U. after    8 cycles
 SCF Done:  E(RB3LYP) =  -1065.55136395     A.U. after    7 cycles
 Optimization completed.
    -- Stationary point found.
 Normal termination of Gaussian 16 at Thu Jul 11 17:31:08 2024.

 ----------------------------------------------------------------------
 # freq B3LYP/6-31G** SCRF=(Solvent=water) volume NMR pop=NPA density=c
 urrent Geom=AllCheck Guess=Read
 ----------------------------------------------------------------------

 Structure from the checkpoint file:  "APQPRKLAWCIJEK-UHFFFAOYSA-N_conf_0_1.chk"
 ----------------------------------
 APQPRKLAWCIJEK-UHFFFAOYSA-N_conf_0
 ----------------------------------
 Charge =  0 Multiplicity = 1

 SCF Done:  E(RB3LYP) =  -1065.55136395     A.U. after    1 cycles

      1  N    Isotropic =   238.0054   Anisotropy =    31.5862

      2  C    Isotropic =   152.2196   Anisotropy =    29.0970

      3  C    Isotropic =   146.5040   Anisotropy =    23.3205

      4  S    Isotropic =   437.6604   Anisotropy =   392.1714

      5  S    Isotropic =   477.5900   Anisotropy =   349.1301

      6  C    Isotropic =   146.1596   Anisotropy =    53.4032

      7  C    Isotropic =   150.4629   Anisotropy =    36.8671

      8  N    Isotropic =   234.3961   Anisotropy =    30.8038

      9  H    Isotropic =    31.1555   Anisotropy =    16.3238

     10  H    Isotropic =    30.8000   Anisotropy =    10.7531

     11  H    Isotropic =    29.1034   Anisotropy =     8.7900

     12  H    Isotropic =    28.4979   Anisotropy =     6.8288

     13  H    Isotropic =    28.8779   Anisotropy =     7.8824

     14  H    Isotropic =    29.3225   Anisotropy =    10.6903

     15  H    Isotropic =    29.0083   Anisotropy =     5.8482

     16  H    Isotropic =    29.0097   Anisotropy =     5.9465

     17  H    Isotropic =    28.8471   Anisotropy =     5.5630

     18  H    Isotropic =    29.2407   Anisotropy =     5.5143

     19  H    Isotropic =    30.8274   Anisotropy =    16.0952

     20  H    Isotropic =    31.3736   Anisotropy =    12.7766

  Exact polarizability: 154.523   1.878 104.993  -9.820   1.961 105.926
 Approx polarizability: 160.826   3.714 119.451 -15.254   1.388 124.008

                      1                      2                      3
                      A                      A                      A
 Frequencies --     32.1947                47.6903                58.3960
 Red. masses --      4.1662                 2.9586                 2.2344
 Frc consts  --      0.0025                 0.0040                 0.0045
 IR Inten    --      0.9503                 0.7529                 4.0775

                      4                      5                      6
                      A                      A                      A
 Frequencies --    112.2176               118.7274               153.8228
 Red. masses --      5.0965                 2.9648                 3.0185
 Frc consts  --      0.0378                 0.0246                 0.0421
 IR Inten    --      0.6741                 0.6463                17.9480

                      7                      8                      9
                      A                      A                      A
 Frequencies --    178.5056               232.6005               248.2763
 Red. masses --      4.1424                 1.2127                 1.1047
 Frc consts  --      0.0778                 0.0387                 0.0401
 IR Inten    --      4.6890                75.0393                72.4287

                     10                     11                     12
                      A                      A                      A
 Frequencies --    282.0092               339.3275               368.8144
 Red. masses --      4.7167                 2.1762                 4.7688
 Frc consts  --      0.2210                 0.1476                 0.3822
 IR Inten    --      3.5813                20.1229                20.1973

                     13                     14                     15
                      A                      A                      A
 Frequencies --    465.4698               501.1026               617.1868
 Red. masses --      2.5113                20.0099                 4.3912
 Frc consts  --      0.3206                 2.9604                 0.9855
 IR Inten    --     17.7319                 0.3938                 5.7489

                     16                     17                     18
                      A                      A                      A
 Frequencies --    744.0997               792.0762               831.6514
 Red. masses --      5.0703                 1.1130                 1.9072
 Frc consts  --      1.6540                 0.4114                 0.7772
 IR Inten    --     27.3156                 8.7637                 3.9037

                     19                     20                     21
                      A                      A                      A
 Frequencies --    888.7025               889.5254               930.5213
 Red. masses --      1.3123                 1.3193                 1.7179
 Frc consts  --      0.6107                 0.6151                 0.8764
 IR Inten    --    132.5152               184.5317                51.3826

                     22                     23                     24
                      A                      A                      A
 Frequencies --    971.6794              1032.7804              1035.3163
 Red. masses --      2.0484                 1.8737                 1.8752
 Frc consts  --      1.1395                 1.1775                 1.1843
 IR Inten    --      2.2141                44.0284                30.9486

                     25                     26                     27
                      A                      A                      A
 Frequencies --   1086.6123              1115.6475              1145.5297
 Red. masses --      2.0161                 1.9618                 1.2564
 Frc consts  --      1.4025                 1.4387                 0.9714
 IR Inten    --     16.3947                 7.8736                15.8801

                     28                     29                     30
                      A                      A                      A
 Frequencies --   1158.8715              1212.8483              1242.1108
 Red. masses --      1.1829                 1.2178                 1.2700
 Frc consts  --      0.9360                 1.0554                 1.1545
 IR Inten    --      0.0438                 3.8251                11.2671

                     31                     32                     33
                      A                      A                      A
 Frequencies --   1301.0968              1310.5815              1345.2967
 Red. masses --      1.2843                 1.2988                 1.1497
 Frc consts  --      1.2809                 1.3144                 1.2260
 IR Inten    --     28.7610                23.7163                 9.3419

                     34                     35                     36
                      A                      A                      A
 Frequencies --   1347.0542              1427.0677              1431.2131
 Red. masses --      1.1459                 1.4028                 1.3777
 Frc consts  --      1.2251                 1.6832                 1.6628
 IR Inten    --      0.7934                20.9347                 9.6640

                     37                     38                     39
                      A                      A                      A
 Frequencies --   1451.2947              1486.5947              1511.6176
 Red. masses --      1.1165                 1.0924                 1.0849
 Frc consts  --      1.3856                 1.4223                 1.4605
 IR Inten    --     15.2042                14.6230                 5.5672

                     40                     41                     42
                      A                      A                      A
 Frequencies --   1523.3558              1650.7670              1658.5678
 Red. masses --      1.0878                 1.0867                 1.0863
 Frc consts  --      1.4873                 1.7448                 1.7606
 IR Inten    --      0.9605                53.1754                30.2142

                     43                     44                     45
                      A                      A                      A
 Frequencies --   2981.7047              2982.3311              3057.1966
 Red. masses --      1.0709                 1.0703                 1.0846
 Frc consts  --      5.6095                 5.6086                 5.9727
 IR Inten    --     79.1130                87.6323                25.0578

                     46                     47                     48
                      A                      A                      A
 Frequencies --   3071.0023              3071.5081              3078.6052
 Red. masses --      1.0679                 1.0716                 1.0765
 Frc consts  --      5.9337                 5.9563                 6.0112
 IR Inten    --     38.1711                18.0837                49.2296

                     49                     50                     51
                      A                      A                      A
 Frequencies --   3134.1395              3141.5432              3484.7476
 Red. masses --      1.1057                 1.1090                 1.0511
 Frc consts  --      6.3994                 6.4489                 7.5205
 IR Inten    --     13.9511                24.6819                 0.8356

                     52                     53                     54
                      A                      A                      A
 Frequencies --   3485.3397              3563.3799              3564.5625
 Red. masses --      1.0510                 1.0910                 1.0918
 Frc consts  --      7.5219                 8.1621                 8.1731
 IR Inten    --      0.5616                 0.9670                 0.4449

 - Thermochemistry -
 -------------------
 Temperature   298.150 Kelvin.  Pressure   1.00000 Atm.
 Atom     1 has atomic number  7 and mass  14.00307

 Molecular mass:   152.04419 amu.
 Principal axes and moments of inertia in atomic units:
                           1         2         3
     Eigenvalues --   545.312273449.912293525.26123
           X            0.99999  -0.00345   0.00322
           Y            0.00329   0.99882   0.04838
           Z           -0.00338  -0.04837   0.99882
 This molecule is an asymmetric top.
 Rotational symmetry number  1.
 Warning -- assumption of classical behavior for rotation
           may cause significant error
 Rotational temperatures (Kelvin)      0.15883     0.02511     0.02457
 Rotational constants (GHZ):           3.30956     0.52313     0.51195
 Zero-point vibrational energy     447970.9 (Joules/Mol)
                                  107.06761 (Kcal/Mol)
 Warning -- explicit consideration of  15 degrees of freedom as
           vibrations may cause significant error
 Vibrational temperatures:     46.32    68.62    84.02   161.46   170.82
          (Kelvin)            221.32   256.83   334.66   357.21   405.75
                              488.22   530.64   669.71   720.97   887.99
                             1070.59  1139.62  1196.56  1278.64  1279.83
                             1338.81  1398.03  1485.94  1489.59  1563.39
                             1605.17  1648.16  1667.36  1745.02  1787.12
                             1871.99  1885.63  1935.58  1938.11  2053.23
                             2059.20  2088.09  2138.88  2174.88  2191.77
                             2375.09  2386.31  4290.01  4290.91  4398.62
                             4418.49  4419.22  4429.43  4509.33  4519.98
                             5013.77  5014.63  5126.91  5128.61

 Zero-point correction=                           0.170623 (Hartree/Particle)
 Thermal correction to Energy=                    0.182123
 Thermal correction to Enthalpy=                  0.183067
 Thermal correction to Gibbs Free Energy=         0.131397
 Sum of electronic and zero-point Energies=          -1065.380741
 Sum of electronic and thermal Energies=             -1065.369241
 Sum of electronic and thermal Enthalpies=           -1065.368297
 Sum of electronic and thermal Free Energies=        -1065.419967

                     E (Thermal)             CV                S
                      KCal/Mol        Cal/Mol-Kelvin    Cal/Mol-Kelvin
 Total                  114.284             38.640            108.749
 Electronic               0.000              0.000              0.000
 Translational            0.889              2.981             40.967
 Rotational               0.889              2.981             30.273
 Vibrational            112.507             32.678             37.508
 Vibration     1          0.594              1.983              5.689
 Vibration     2          0.595              1.978              4.911
 Vibration     3          0.596              1.974              4.511
 Vibration     4          0.607              1.939              3.230
 Vibration     5          0.609              1.934              3.121
 Vibration     6          0.619              1.898              2.624
 Vibration     7          0.629              1.869              2.344
 Vibration     8          0.653              1.791              1.859
 Vibration     9          0.662              1.766              1.743
 Vibration    10          0.681              1.707              1.521
 Vibration    11          0.719              1.597              1.215
 Vibration    12          0.741              1.536              1.085
 Vibration    13          0.823              1.327              0.750
 Vibration    14          0.856              1.248              0.655
 Vibration    15          0.977              0.996              0.421

 Optimization completed.
    -- Stationary point found.
 Normal termination of Gaussian 16 at Thu Jul 11 17:42:44 2024.
 Gaussian 16:  EM64L-G16RevA.03 25-Dec-2016

 ----------------------------------------------------------------------
 # TD(NStates=10, Root=1) B3LYP/6-31G** SCRF=(Solvent=water) volume pop
 =NPA density=current Geom=AllCheck Guess=Read
 ----------------------------------------------------------------------

 Structure from the checkpoint file:  "APQPRKLAWCIJEK-UHFFFAOYSA-N_conf_0_2.chk"
 ----------------------------------
 APQPRKLAWCIJEK-UHFFFAOYSA-N_conf_0
 ----------------------------------
 Charge =  0 Multiplicity = 1

                         Standard orientation:
 ---------------------------------------------------------------------
 Center     Atomic      Atomic             Coordinates (Angstroms)
 Number     Number       Type             X           Y           Z
 ---------------------------------------------------------------------
      1          7           0       -3.783338    0.346191   -0.532703
      2          6           0       -2.658435    1.170685   -0.077259
      3          6           0       -1.865083    0.469014    1.019115
      4         16           0       -1.031294   -1.098507    0.490616
      5         16           0        0.481392   -0.473921   -0.803055
      6          6           0        1.897883   -0.129727    0.336536
      7          6           0        3.110209    0.322820   -0.482149
      8          7           0        4.238342    0.570159    0.426449
      9          1           0       -4.310015    0.866141   -1.231567
     10          1           0       -3.413088   -0.466751   -1.022843
     11          1           0       -3.062922    2.095028    0.353659
     12          1           0       -1.965771    1.474410   -0.879068
     13          1           0       -1.111908    1.131870    1.451031
     14          1           0       -2.534535    0.135759    1.819643
     15          1           0        1.595638    0.651826    1.039370
     16          1           0        2.132380   -1.038441    0.894599
     17          1           0        2.832976    1.194174   -1.097117
     18          1           0        3.400133   -0.476273   -1.173281
     19          1           0        5.073682    0.745804   -0.128260
     20          1           0        4.069385    1.434101    0.939181
 ---------------------------------------------------------------------

 SCF Done:  E(RB3LYP) =  -1065.55136395     A.U. after    1 cycles

 Excitation energies and oscillator strengths:

 Excited State   1:      Singlet-A      4.4992 eV  275.57 nm  f=0.0114  <S**2>=0.000
      38 -> 42         0.22874
      39 -> 42         0.15123
      40 -> 42         0.11868
      41 -> 42         0.63769
 This state for optimization and/or second-order correction.
 Total Energy, E(TD-HF/TD-DFT) =  -1065.38602247
 Copying the excited state density for this state as the 1-particle RhoCI density.

 Excited State   2:      Singlet-A      4.6891 eV  264.41 nm  f=0.0010  <S**2>=0.000
      38 -> 42        -0.20300
      39 -> 42         0.64694
      40 -> 42         0.15538
      41 -> 42        -0.11030

 Excited State   3:      Singlet-A      5.0835 eV  243.90 nm  f=0.0058  <S**2>=0.000
      38 -> 42         0.28376
      40 -> 42         0.60996
      41 -> 42        -0.19584

 Excited State   4:      Singlet-A      5.2506 eV  236.13 nm  f=0.0040  <S**2>=0.000
      38 -> 42         0.56760
      39 -> 42         0.21620
      40 -> 42        -0.29771
      41 -> 42        -0.20191

 Excited State   5:      Singlet-A      6.3594 eV  194.96 nm  f=0.0113  <S**2>=0.000
      39 -> 43         0.28559
      39 -> 44         0.10520
      40 -> 43         0.20979
      41 -> 43         0.57620

 Excited State   6:      Singlet-A      6.4991 eV  190.77 nm  f=0.0010  <S**2>=0.000
      38 -> 44         0.23043
      39 -> 43         0.16382
      41 -> 44         0.61921

 Excited State   7:      Singlet-A      6.6708 eV  185.86 nm  f=0.0660  <S**2>=0.000
      37 -> 42         0.10716
      39 -> 43         0.57605
      39 -> 44         0.19000
      40 -> 43        -0.14088
      41 -> 43        -0.26209
      41 -> 44        -0.13510

 Excited State   8:      Singlet-A      6.7854 eV  182.72 nm  f=0.0123  <S**2>=0.000
      37 -> 42         0.23932
      38 -> 43        -0.28378
      38 -> 44        -0.18143
      39 -> 44         0.17882
      40 -> 43         0.51193
      41 -> 43        -0.14014

 Excited State   9:      Singlet-A      6.8420 eV  181.21 nm  f=0.0255  <S**2>=0.000
      37 -> 42         0.28057
      38 -> 43         0.10071
      39 -> 43        -0.19585
      39 -> 44         0.49208
      40 -> 43        -0.25147
      40 -> 44         0.11376
      41 -> 43         0.11128
      41 -> 44         0.17942

 Excited State  10:      Singlet-A      6.9086 eV  179.46 nm  f=0.0158  <S**2>=0.000
      37 -> 42         0.18512
      38 -> 43        -0.38075
      38 -> 44         0.29416
      39 -> 44        -0.12355
      40 -> 43        -0.17635
      40 -> 44         0.38594
      41 -> 43         0.12325
      41 -> 44        -0.12692

 The electronic state is 1-A.
 Alpha  occ. eigenvalues --  -88.89578 -88.89516 -14.31719 -14.31244 -10.21738
 Alpha  occ. eigenvalues --  -10.21736 -10.21552 -10.21274  -7.95698  -7.95634
 Alpha  occ. eigenvalues --   -5.92266  -5.92193  -5.91792  -5.91745  -5.91129
 Alpha  occ. eigenvalues --   -5.91061  -0.88467  -0.88194  -0.81655  -0.76518
 Alpha  occ. eigenvalues --   -0.70956  -0.64579  -0.60246  -0.56895  -0.49171
 Alpha  occ. eigenvalues --   -0.49001  -0.47535  -0.46363  -0.43972  -0.41761
 Alpha  occ. eigenvalues --   -0.39874  -0.38719  -0.38449  -0.36725  -0.35980
 Alpha  occ. eigenvalues --   -0.34051  -0.31985  -0.25247  -0.24646  -0.24359
 Alpha  occ. eigenvalues --   -0.23430
 Alpha virt. eigenvalues --   -0.02897   0.03640   0.04448   0.08260   0.09875
 Alpha virt. eigenvalues --    0.11169   0.13374   0.13617   0.14598   0.15481
 Alpha virt. eigenvalues --    0.16056   0.16338   0.18378   0.19679   0.20279

 Mulliken charges:
               1
     1  N   -0.601113
     2  C   -0.057537
     3  C   -0.315821
     4  S   -0.127936
     5  S   -0.069621
     6  C   -0.318359
     7  C   -0.048412
     8  N   -0.626295
     9  H    0.271744
    10  H    0.270427
    11  H    0.133598
    12  H    0.114483
    13  H    0.152948
    14  H    0.156961
    15  H    0.153344
    16  H    0.159460
    17  H    0.103929
    18  H    0.122077
    19  H    0.264505
    20  H    0.261616
 Sum of Mulliken charges =  -0.00000

 Dipole moment (field-independent basis, Debye):
    X=              1.1446    Y=              5.0875    Z=             -0.5345  Tot=              5.2420
 Quadrupole moment (field-independent basis, Debye-Ang):
   XX=            -56.8143   YY=            -63.7850   ZZ=            -65.5125
   XY=             -0.2163   XZ=              4.1254   YZ=              2.0804

 Summary of Natural Population Analysis:

                                       Natural Population
                Natural  -----------------------------------------------
    Atom  No    Charge         Core      Valence    Rydberg      Total
 -----------------------------------------------------------------------
      N    1   -0.87544      1.99965     5.86087    0.01491     7.87544
      C    2   -0.27919      1.99929     4.26412    0.01578     6.27919
      C    3   -0.60627      1.99927     4.59245    0.01455     6.60627
      S    4   -0.03988      9.99933     5.98009    0.06046    16.03988
      S    5    0.03447      9.99928     5.90734    0.05891    15.96553
      C    6   -0.60473      1.99927     4.59137    0.01409     6.60473
      C    7   -0.28295      1.99933     4.26432    0.01929     6.28295
      N    8   -0.90403      1.99965     5.88895    0.01543     7.90403
      H    9    0.40135      0.00000     0.59629    0.00235     0.59865
      H   10    0.39413      0.00000     0.60296    0.00291     0.60587
      H   11    0.24985      0.00000     0.74807    0.00208     0.75015
      H   12    0.22253      0.00000     0.77452    0.00295     0.77747
      H   13    0.26139      0.00000     0.73568    0.00293     0.73861
      H   14    0.26809      0.00000     0.72879    0.00311     0.73191
      H   15    0.25402      0.00000     0.74292    0.00306     0.74598
      H   16    0.26290      0.00000     0.73300    0.00409     0.73710
      H   17    0.21762      0.00000     0.77914    0.00325     0.78238
      H   18    0.23748      0.00000     0.75997    0.00255     0.76252
      H   19    0.39829      0.00000     0.59911    0.00260     0.60171
      H   20    0.39038      0.00000     0.60686    0.00277     0.60962
 =======================================================================
   * Total *    0.00000     31.99508    49.75683    0.24809    82.00000

 Normal termination of Gaussian 16 at Thu Jul 11 17:56:20 2024.
