 Gaussian 16, Revision A.03,

 -------------------------------------------------------
 # opt=CalcFc B3LYP/6-31G** SCRF=(Solvent=water) scf=xqc
 -------------------------------------------------------

 ----------------------------------
 APQPRKLAWCIJEK-UHFFFAOYSA-N_conf_4
 ----------------------------------
 Symbolic Z-matrix:
 Charge =  0 Multiplicity = 1

 SCF Done:  E(RB3LYP) =  -1065.54652160     A.U. after   12 cycles
 SCF Done:  E(RB3LYP) =  -1065.55031333     A.U. after   10 cycles
 SCF Done:  E(RB3LYP) =  -1065.55062865     A.U. after   10 cycles
 SCF Done:  E(RB3LYP) =  -1065.55063576     A.U. after    8 cycles
 SCF Done:  E(RB3LYP) =  -1065.55063592     A.U. after    7 cycles
 Optimization completed.
    -- Stationary point found.
 Normal termination of Gaussian 16 at Thu Jul 11 17:31:54 2024.

 ----------------------------------------------------------------------
 # freq B3LYP/6-31G** SCRF=(Solvent=water) volume NMR pop=NPA density=c
 urrent Geom=AllCheck Guess=Read
 ----------------------------------------------------------------------

 Structure from the checkpoint file:  "APQPRKLAWCIJEK-UHFFFAOYSA-N_conf_4_1.chk"
 ----------------------------------
 APQPRKLAWCIJEK-UHFFFAOYSA-N_conf_4
 ----------------------------------
 Charge =  0 Multiplicity = 1

 SCF Done:  E(RB3LYP) =  -1065.55063592     A.U. after    1 cycles

      1  N    Isotropic =   234.9321   Anisotropy =    28.0094

      2  C    Isotropic =   146.4769   Anisotropy =    47.0860

      3  C    Isotropic =   148.0451   Anisotropy =    42.0853

      4  S    Isotropic =   426.3879   Anisotropy =   321.3335

      5  S    Isotropic =   452.9938   Anisotropy =   393.2050

      6  C    Isotropic =   143.0737   Anisotropy =    44.4396

      7  C    Isotropic =   150.3953   Anisotropy =    27.1363

      8  N    Isotropic =   234.0030   Anisotropy =    25.0094

      9  H    Isotropic =    30.9131   Anisotropy =    15.7562

     10  H    Isotropic =    31.4681   Anisotropy =    12.3587

     11  H    Isotropic =    28.5092   Anisotropy =     6.7677

     12  H    Isotropic =    29.1582   Anisotropy =     5.4116

     13  H    Isotropic =    29.2103   Anisotropy =     5.3132

     14  H    Isotropic =    29.2986   Anisotropy =     9.3964

     15  H    Isotropic =    28.6704   Anisotropy =     7.6051

     16  H    Isotropic =    28.8536   Anisotropy =     6.0356

     17  H    Isotropic =    28.9829   Anisotropy =     8.9236

     18  H    Isotropic =    28.7115   Anisotropy =     7.8500

     19  H    Isotropic =    30.9845   Anisotropy =    16.1995

     20  H    Isotropic =    31.0453   Anisotropy =    10.4950

  Exact polarizability: 152.574   5.302 112.708  -3.761  -1.112  99.211
 Approx polarizability: 162.572   9.336 124.646  -7.940  -1.182 116.062

                      1                      2                      3
                      A                      A                      A
 Frequencies --     23.6477                48.1912                79.5670
 Red. masses --      4.2814                 2.9594                 2.5389
 Frc consts  --      0.0014                 0.0040                 0.0095
 IR Inten    --      1.1543                 3.9366                 0.4700

                      4                      5                      6
                      A                      A                      A
 Frequencies --     90.9130               137.1358               152.9742
 Red. masses --      2.6318                 4.0844                 3.3003
 Frc consts  --      0.0128                 0.0453                 0.0455
 IR Inten    --      7.0713                 2.4395                 8.1679

                      7                      8                      9
                      A                      A                      A
 Frequencies --    200.4209               227.1032               242.8524
 Red. masses --      1.6318                 1.8833                 1.2222
 Frc consts  --      0.0386                 0.0572                 0.0425
 IR Inten    --     46.5581                13.4165                90.5298

                     10                     11                     12
                      A                      A                      A
 Frequencies --    268.2173               298.5261               388.3779
 Red. masses --      3.1870                 2.4257                 6.3325
 Frc consts  --      0.1351                 0.1274                 0.5628
 IR Inten    --     15.1019                18.9803                11.0458

                     13                     14                     15
                      A                      A                      A
 Frequencies --    447.0804               507.5931               649.2745
 Red. masses --      2.6441                11.9504                 3.7732
 Frc consts  --      0.3114                 1.8141                 0.9372
 IR Inten    --     15.9043                 0.4402                 4.3690

                     16                     17                     18
                      A                      A                      A
 Frequencies --    710.5555               771.2647               848.2990
 Red. masses --      3.8158                 1.2097                 1.8239
 Frc consts  --      1.1351                 0.4240                 0.7733
 IR Inten    --     18.8797                18.5538                27.5974

                     19                     20                     21
                      A                      A                      A
 Frequencies --    886.6816               887.1641               924.7195
 Red. masses --      1.3255                 1.2760                 1.8208
 Frc consts  --      0.6140                 0.5917                 0.9173
 IR Inten    --    187.6158               124.1470                32.9778

                     22                     23                     24
                      A                      A                      A
 Frequencies --    968.3083              1030.7069              1038.4173
 Red. masses --      1.9066                 1.7760                 2.2569
 Frc consts  --      1.0532                 1.1117                 1.4339
 IR Inten    --      4.8172                28.8554                37.4982

                     25                     26                     27
                      A                      A                      A
 Frequencies --   1087.9416              1113.4541              1149.2394
 Red. masses --      1.9286                 2.1296                 1.2459
 Frc consts  --      1.3449                 1.5556                 0.9695
 IR Inten    --     17.2938                16.7970                 5.4252

                     28                     29                     30
                      A                      A                      A
 Frequencies --   1162.7047              1198.4828              1242.5760
 Red. masses --      1.1461                 1.2253                 1.2789
 Frc consts  --      0.9129                 1.0370                 1.1634
 IR Inten    --      1.1322                12.0766                10.9281

                     31                     32                     33
                      A                      A                      A
 Frequencies --   1302.9311              1309.9266              1341.6621
 Red. masses --      1.3078                 1.2656                 1.1427
 Frc consts  --      1.3081                 1.2795                 1.2119
 IR Inten    --     38.3606                 8.8527                 3.2704

                     34                     35                     36
                      A                      A                      A
 Frequencies --   1349.0556              1424.8372              1427.7651
 Red. masses --      1.1547                 1.3714                 1.3960
 Frc consts  --      1.2382                 1.6404                 1.6767
 IR Inten    --      8.1903                10.2513                28.9120

                     37                     38                     39
                      A                      A                      A
 Frequencies --   1463.9497              1469.9744              1511.6611
 Red. masses --      1.1075                 1.1035                 1.0823
 Frc consts  --      1.3985                 1.4049                 1.4572
 IR Inten    --      5.0486                27.5747                 4.1556

                     40                     41                     42
                      A                      A                      A
 Frequencies --   1518.1617              1655.7323              1656.2132
 Red. masses --      1.0868                 1.0865                 1.0871
 Frc consts  --      1.4759                 1.7550                 1.7569
 IR Inten    --      1.7889                58.5551                29.7224

                     43                     44                     45
                      A                      A                      A
 Frequencies --   2972.5182              2990.8427              3065.0212
 Red. masses --      1.0723                 1.0699                 1.0586
 Frc consts  --      5.5822                 5.6387                 5.8592
 IR Inten    --    102.8623                72.4467                21.7421

                     46                     47                     48
                      A                      A                      A
 Frequencies --   3068.5752              3080.0138              3085.1649
 Red. masses --      1.0859                 1.0927                 1.0608
 Frc consts  --      6.0247                 6.1076                 5.9489
 IR Inten    --     18.1714                38.0701                42.5207

                     49                     50                     51
                      A                      A                      A
 Frequencies --   3122.8877              3149.2699              3482.9776
 Red. masses --      1.1074                 1.1106                 1.0510
 Frc consts  --      6.3631                 6.4897                 7.5120
 IR Inten    --     21.5750                17.6298                 0.8603

                     52                     53                     54
                      A                      A                      A
 Frequencies --   3489.8848              3562.2886              3567.3892
 Red. masses --      1.0510                 1.0916                 1.0915
 Frc consts  --      7.5419                 8.1615                 8.1842
 IR Inten    --      0.1470                 0.2578                 0.5387

 - Thermochemistry -
 -------------------
 Temperature   298.150 Kelvin.  Pressure   1.00000 Atm.
 Atom     1 has atomic number  7 and mass  14.00307

 Molecular mass:   152.04419 amu.
 Principal axes and moments of inertia in atomic units:
                           1         2         3
     Eigenvalues --   890.187402746.638833317.33234
           X            0.99994  -0.00843   0.00663
           Y            0.00859   0.99967  -0.02403
           Z           -0.00643   0.02408   0.99969
 This molecule is an asymmetric top.
 Rotational symmetry number  1.
 Warning -- assumption of classical behavior for rotation
           may cause significant error
 Rotational temperatures (Kelvin)      0.09730     0.03153     0.02611
 Rotational constants (GHZ):           2.02737     0.65707     0.54403
 Zero-point vibrational energy     447709.0 (Joules/Mol)
                                  107.00501 (Kcal/Mol)
 Warning -- explicit consideration of  14 degrees of freedom as
           vibrations may cause significant error
 Vibrational temperatures:     34.02    69.34   114.48   130.80   197.31
          (Kelvin)            220.10   288.36   326.75   349.41   385.90
                              429.51   558.79   643.25   730.31   934.16
                             1022.33  1109.68  1220.51  1275.74  1276.43
                             1330.47  1393.18  1482.96  1494.05  1565.31
                             1602.01  1653.50  1672.87  1724.35  1787.79
                             1874.63  1884.69  1930.35  1940.99  2050.02
                             2054.24  2106.30  2114.97  2174.94  2184.30
                             2382.23  2382.92  4276.79  4303.16  4409.88
                             4415.00  4431.45  4438.86  4493.14  4531.10
                             5011.23  5021.17  5125.34  5132.68

 Zero-point correction=                           0.170523 (Hartree/Particle)
 Thermal correction to Energy=                    0.182047
 Thermal correction to Enthalpy=                  0.182991
 Thermal correction to Gibbs Free Energy=         0.131107
 Sum of electronic and zero-point Energies=          -1065.380113
 Sum of electronic and thermal Energies=             -1065.368589
 Sum of electronic and thermal Enthalpies=           -1065.367645
 Sum of electronic and thermal Free Energies=        -1065.419529

                     E (Thermal)             CV                S
                      KCal/Mol        Cal/Mol-Kelvin    Cal/Mol-Kelvin
 Total                  114.236             38.737            109.200
 Electronic               0.000              0.000              0.000
 Translational            0.889              2.981             40.967
 Rotational               0.889              2.981             30.473
 Vibrational            112.459             32.775             37.759
 Vibration     1          0.593              1.985              6.302
 Vibration     2          0.595              1.978              4.890
 Vibration     3          0.600              1.963              3.902
 Vibration     4          0.602              1.956              3.640
 Vibration     5          0.614              1.916              2.843
 Vibration     6          0.619              1.899              2.635
 Vibration     7          0.638              1.839              2.129
 Vibration     8          0.651              1.800              1.902
 Vibration     9          0.659              1.775              1.782
 Vibration    10          0.673              1.732              1.608
 Vibration    11          0.692              1.676              1.425
 Vibration    12          0.757              1.495              1.006
 Vibration    13          0.806              1.367              0.805
 Vibration    14          0.863              1.233              0.639

 Optimization completed.
    -- Stationary point found.
 Normal termination of Gaussian 16 at Thu Jul 11 17:43:56 2024.
 Gaussian 16:  EM64L-G16RevA.03 25-Dec-2016

 ----------------------------------------------------------------------
 # TD(NStates=10, Root=1) B3LYP/6-31G** SCRF=(Solvent=water) volume pop
 =NPA density=current Geom=AllCheck Guess=Read
 ----------------------------------------------------------------------

 Structure from the checkpoint file:  "APQPRKLAWCIJEK-UHFFFAOYSA-N_conf_4_2.chk"
 ----------------------------------
 APQPRKLAWCIJEK-UHFFFAOYSA-N_conf_4
 ----------------------------------
 Charge =  0 Multiplicity = 1

                         Standard orientation:
 ---------------------------------------------------------------------
 Center     Atomic      Atomic             Coordinates (Angstroms)
 Number     Number       Type             X           Y           Z
 ---------------------------------------------------------------------
      1          7           0       -3.474543    1.634037    0.167614
      2          6           0       -2.634055    0.579000   -0.416957
      3          6           0       -1.898828   -0.160475    0.699679
      4         16           0       -0.845393   -1.554038    0.108992
      5         16           0        0.803224   -0.624876   -0.768298
      6          6           0        1.988026   -0.430707    0.647731
      7          6           0        3.191773    0.406735    0.213486
      8          7           0        2.831780    1.818286    0.028144
      9          1           0       -4.054271    2.037277   -0.565703
     10          1           0       -2.878449    2.395994    0.487497
     11          1           0       -1.899075    0.946697   -1.149994
     12          1           0       -3.285314   -0.127064   -0.943105
     13          1           0       -1.276250    0.519049    1.289195
     14          1           0       -2.613434   -0.633283    1.381798
     15          1           0        2.304801   -1.427491    0.961879
     16          1           0        1.465472    0.064814    1.468810
     17          1           0        3.927270    0.349513    1.024189
     18          1           0        3.663446   -0.060276   -0.667264
     19          1           0        3.678860    2.349115   -0.163664
     20          1           0        2.259501    1.914700   -0.808677
 ---------------------------------------------------------------------

 SCF Done:  E(RB3LYP) =  -1065.55063592     A.U. after    1 cycles

 Excitation energies and oscillator strengths:

 Excited State   1:      Singlet-A      4.4800 eV  276.75 nm  f=0.0114  <S**2>=0.000
      38 -> 42         0.28970
      41 -> 42         0.63707
 This state for optimization and/or second-order correction.
 Total Energy, E(TD-HF/TD-DFT) =  -1065.38600032
 Copying the excited state density for this state as the 1-particle RhoCI density.

 Excited State   2:      Singlet-A      4.6376 eV  267.34 nm  f=0.0010  <S**2>=0.000
      38 -> 42        -0.12642
      39 -> 42         0.57113
      40 -> 42        -0.39208

 Excited State   3:      Singlet-A      5.0381 eV  246.09 nm  f=0.0014  <S**2>=0.000
      38 -> 42        -0.17569
      39 -> 42         0.36006
      40 -> 42         0.57978

 Excited State   4:      Singlet-A      5.1830 eV  239.21 nm  f=0.0008  <S**2>=0.000
      38 -> 42         0.60465
      39 -> 42         0.18626
      41 -> 42        -0.29978

 Excited State   5:      Singlet-A      6.4263 eV  192.93 nm  f=0.0052  <S**2>=0.000
      38 -> 43         0.20979
      38 -> 44         0.22185
      39 -> 44        -0.13026
      40 -> 44         0.15570
      41 -> 43         0.49764
      41 -> 44         0.31607

 Excited State   6:      Singlet-A      6.4640 eV  191.81 nm  f=0.0167  <S**2>=0.000
      38 -> 44         0.10526
      39 -> 43        -0.20583
      39 -> 44         0.16082
      40 -> 43         0.17940
      40 -> 44        -0.10506
      41 -> 43        -0.30976
      41 -> 44         0.51694

 Excited State   7:      Singlet-A      6.6952 eV  185.18 nm  f=0.0575  <S**2>=0.000
      37 -> 42        -0.21841
      39 -> 43        -0.28792
      39 -> 44         0.44272
      40 -> 43         0.12866
      40 -> 44        -0.23523
      41 -> 43         0.25848
      41 -> 44        -0.16308

 Excited State   8:      Singlet-A      6.7772 eV  182.94 nm  f=0.0109  <S**2>=0.000
      37 -> 42         0.23971
      38 -> 43        -0.12503
      39 -> 43        -0.24271
      40 -> 43         0.43756
      40 -> 44         0.37296
      41 -> 44        -0.16784

 Excited State   9:      Singlet-A      6.8441 eV  181.15 nm  f=0.0062  <S**2>=0.000
      37 -> 42        -0.20629
      38 -> 44        -0.29377
      39 -> 43         0.42286
      39 -> 44         0.24201
      40 -> 43         0.28897
      40 -> 44         0.18118
      41 -> 44         0.10820

 Excited State  10:      Singlet-A      6.9048 eV  179.56 nm  f=0.0460  <S**2>=0.000
      37 -> 42        -0.18966
      38 -> 43         0.45272
      38 -> 44        -0.23831
      39 -> 43        -0.18367
      39 -> 44        -0.27969
      40 -> 43         0.19737
      40 -> 44        -0.14059
      41 -> 43        -0.10682

 The electronic state is 1-A.
 Alpha  occ. eigenvalues --  -88.89624 -88.89440 -14.31525 -14.31484 -10.21801
 Alpha  occ. eigenvalues --  -10.21636 -10.21612 -10.21204  -7.95748  -7.95562
 Alpha  occ. eigenvalues --   -5.92313  -5.92124  -5.91849  -5.91670  -5.91174
 Alpha  occ. eigenvalues --   -5.90989  -0.88441  -0.88185  -0.81685  -0.76525
 Alpha  occ. eigenvalues --   -0.70923  -0.64531  -0.60223  -0.57017  -0.49577
 Alpha  occ. eigenvalues --   -0.48833  -0.47523  -0.45988  -0.43948  -0.41813
 Alpha  occ. eigenvalues --   -0.39491  -0.39384  -0.38620  -0.36278  -0.35851
 Alpha  occ. eigenvalues --   -0.34331  -0.32008  -0.25048  -0.24696  -0.24305
 Alpha  occ. eigenvalues --   -0.23522
 Alpha virt. eigenvalues --   -0.03039   0.03955   0.04160   0.08969   0.10066
 Alpha virt. eigenvalues --    0.10454   0.12816   0.13076   0.15465   0.15716
 Alpha virt. eigenvalues --    0.16822   0.16870   0.18503   0.19022   0.19712

 Mulliken charges:
               1
     1  N   -0.609018
     2  C   -0.048843
     3  C   -0.316983
     4  S   -0.154812
     5  S   -0.017535
     6  C   -0.322336
     7  C   -0.045261
     8  N   -0.628957
     9  H    0.275773
    10  H    0.270719
    11  H    0.114130
    12  H    0.129506
    13  H    0.145677
    14  H    0.157669
    15  H    0.171086
    16  H    0.156249
    17  H    0.113573
    18  H    0.100931
    19  H    0.258694
    20  H    0.249736
 Sum of Mulliken charges =  -0.00000

 Dipole moment (field-independent basis, Debye):
    X=              1.2023    Y=              3.8859    Z=             -0.2992  Tot=              4.0786
 Quadrupole moment (field-independent basis, Debye-Ang):
   XX=            -54.6100   YY=            -65.7475   ZZ=            -66.3368
   XY=             -7.2841   XZ=              4.9132   YZ=             -5.2913

 Summary of Natural Population Analysis:

                                       Natural Population
                Natural  -----------------------------------------------
    Atom  No    Charge         Core      Valence    Rydberg      Total
 -----------------------------------------------------------------------
      N    1   -0.87525      1.99963     5.86135    0.01427     7.87525
      C    2   -0.27659      1.99929     4.26154    0.01576     6.27659
      C    3   -0.60373      1.99928     4.58954    0.01491     6.60373
      S    4   -0.08324      9.99932     6.02443    0.05949    16.08324
      S    5    0.10283      9.99929     5.83820    0.05968    15.89717
      C    6   -0.60785      1.99926     4.59421    0.01438     6.60785
      C    7   -0.28033      1.99932     4.26319    0.01782     6.28033
      N    8   -0.92672      1.99967     5.91154    0.01550     7.92672
      H    9    0.40577      0.00000     0.59180    0.00244     0.59423
      H   10    0.39579      0.00000     0.60146    0.00275     0.60421
      H   11    0.22220      0.00000     0.77505    0.00275     0.77780
      H   12    0.24192      0.00000     0.75557    0.00251     0.75808
      H   13    0.24809      0.00000     0.74822    0.00369     0.75191
      H   14    0.26946      0.00000     0.72780    0.00275     0.73054
      H   15    0.27764      0.00000     0.71950    0.00286     0.72236
      H   16    0.25826      0.00000     0.73746    0.00428     0.74174
      H   17    0.23784      0.00000     0.75852    0.00364     0.76216
      H   18    0.21582      0.00000     0.78032    0.00386     0.78418
      H   19    0.39496      0.00000     0.60248    0.00256     0.60504
      H   20    0.38313      0.00000     0.61211    0.00476     0.61687
 =======================================================================
   * Total *    0.00000     31.99506    49.75429    0.25065    82.00000

 Normal termination of Gaussian 16 at Thu Jul 11 17:57:53 2024.
