 Gaussian 16, Revision A.03,

 -------------------------------------------------------
 # opt=CalcFc B3LYP/6-31G** SCRF=(Solvent=water) scf=xqc
 -------------------------------------------------------

 ----------------------------------
 APQPRKLAWCIJEK-UHFFFAOYSA-N_conf_3
 ----------------------------------
 Symbolic Z-matrix:
 Charge =  0 Multiplicity = 1

 SCF Done:  E(RB3LYP) =  -1065.54949443     A.U. after   11 cycles
 SCF Done:  E(RB3LYP) =  -1065.55333379     A.U. after   10 cycles
 SCF Done:  E(RB3LYP) =  -1065.55384880     A.U. after   12 cycles
 SCF Done:  E(RB3LYP) =  -1065.55094648     A.U. after   12 cycles
 SCF Done:  E(RB3LYP) =  -1065.55417498     A.U. after   10 cycles
 SCF Done:  E(RB3LYP) =  -1065.55420905     A.U. after    9 cycles
 SCF Done:  E(RB3LYP) =  -1065.55421421     A.U. after    7 cycles
 SCF Done:  E(RB3LYP) =  -1065.55421457     A.U. after    7 cycles
 SCF Done:  E(RB3LYP) =  -1065.55421463     A.U. after    6 cycles
 Optimization completed.
    -- Stationary point found.
 Normal termination of Gaussian 16 at Thu Jul 11 17:38:18 2024.

 ----------------------------------------------------------------------
 # freq B3LYP/6-31G** SCRF=(Solvent=water) volume NMR pop=NPA density=c
 urrent Geom=AllCheck Guess=Read
 ----------------------------------------------------------------------

 Structure from the checkpoint file:  "APQPRKLAWCIJEK-UHFFFAOYSA-N_conf_3_1.chk"
 ----------------------------------
 APQPRKLAWCIJEK-UHFFFAOYSA-N_conf_3
 ----------------------------------
 Charge =  0 Multiplicity = 1

 SCF Done:  E(RB3LYP) =  -1065.55421463     A.U. after    1 cycles

      1  N    Isotropic =   239.9284   Anisotropy =    41.0693

      2  C    Isotropic =   151.4323   Anisotropy =    30.8686

      3  C    Isotropic =   143.4168   Anisotropy =    21.8516

      4  S    Isotropic =   449.6958   Anisotropy =   393.4409

      5  S    Isotropic =   449.2180   Anisotropy =   342.1198

      6  C    Isotropic =   142.3594   Anisotropy =    50.3457

      7  C    Isotropic =   147.8552   Anisotropy =    21.3447

      8  N    Isotropic =   232.9424   Anisotropy =    27.1515

      9  H    Isotropic =    31.8853   Anisotropy =    15.0955

     10  H    Isotropic =    30.3566   Anisotropy =    11.4076

     11  H    Isotropic =    29.0254   Anisotropy =     8.9027

     12  H    Isotropic =    28.9692   Anisotropy =     6.4286

     13  H    Isotropic =    28.9184   Anisotropy =     7.8068

     14  H    Isotropic =    29.6282   Anisotropy =    10.3148

     15  H    Isotropic =    28.1563   Anisotropy =     7.2806

     16  H    Isotropic =    29.4183   Anisotropy =     6.2270

     17  H    Isotropic =    28.4217   Anisotropy =     9.5077

     18  H    Isotropic =    28.8456   Anisotropy =     6.6817

     19  H    Isotropic =    31.4392   Anisotropy =    12.4789

     20  H    Isotropic =    30.9188   Anisotropy =    16.1122

  Exact polarizability: 159.756   9.711 106.734  -4.220   1.255 104.362
 Approx polarizability: 166.871  15.051 123.099  -6.446  -0.015 120.525

                      1                      2                      3
                      A                      A                      A
 Frequencies --     31.5499                43.7074                59.2137
 Red. masses --      4.9853                 3.0483                 3.5285
 Frc consts  --      0.0029                 0.0034                 0.0073
 IR Inten    --      1.1375                 0.5853                 4.5096

                      4                      5                      6
                      A                      A                      A
 Frequencies --    117.2814               137.1240               155.4817
 Red. masses --      4.0302                 2.8533                 3.3828
 Frc consts  --      0.0327                 0.0316                 0.0482
 IR Inten    --      5.8502                 2.9305                 0.8166

                      7                      8                      9
                      A                      A                      A
 Frequencies --    216.2426               250.7804               282.4111
 Red. masses --      3.4172                 2.3711                 1.5516
 Frc consts  --      0.0941                 0.0879                 0.0729
 IR Inten    --     10.5665                37.0335                10.7786

                     10                     11                     12
                      A                      A                      A
 Frequencies --    287.2144               345.7108               442.6098
 Red. masses --      1.2313                 1.5496                 3.6633
 Frc consts  --      0.0598                 0.1091                 0.4228
 IR Inten    --     65.5063                31.7385                20.2343

                     13                     14                     15
                      A                      A                      A
 Frequencies --    469.3434               502.8868               619.7712
 Red. masses --      2.4226                 6.8140                 4.0811
 Frc consts  --      0.3144                 1.0153                 0.9236
 IR Inten    --      5.3012                 1.5358                 4.2118

                     16                     17                     18
                      A                      A                      A
 Frequencies --    664.4829               824.6262               837.2361
 Red. masses --      3.4554                 1.7575                 1.5296
 Frc consts  --      0.8989                 0.7041                 0.6317
 IR Inten    --      1.1583                18.4851               101.5383

                     19                     20                     21
                      A                      A                      A
 Frequencies --    877.3734               904.0078               921.5580
 Red. masses --      1.8651                 1.4507                 1.3982
 Frc consts  --      0.8459                 0.6985                 0.6996
 IR Inten    --    132.0496                70.8465               151.1081

                     22                     23                     24
                      A                      A                      A
 Frequencies --    941.4218              1012.8391              1019.4631
 Red. masses --      2.0447                 1.9236                 1.5003
 Frc consts  --      1.0677                 1.1626                 0.9187
 IR Inten    --     19.7753                69.6650                33.5947

                     25                     26                     27
                      A                      A                      A
 Frequencies --   1086.5137              1092.1430              1120.0516
 Red. masses --      1.7244                 1.7374                 1.2919
 Frc consts  --      1.1994                 1.2210                 0.9549
 IR Inten    --      5.0915                16.4425                 2.5982

                     28                     29                     30
                      A                      A                      A
 Frequencies --   1146.8443              1241.9314              1248.5480
 Red. masses --      1.3466                 1.2828                 1.2783
 Frc consts  --      1.0435                 1.1657                 1.1740
 IR Inten    --      0.6358                 6.3111                 0.8440

                     31                     32                     33
                      A                      A                      A
 Frequencies --   1303.2128              1310.2144              1334.7697
 Red. masses --      1.3079                 1.3129                 1.2050
 Frc consts  --      1.3087                 1.3279                 1.2648
 IR Inten    --     57.4739                 9.5665                33.1957

                     34                     35                     36
                      A                      A                      A
 Frequencies --   1386.9608              1397.8541              1428.2939
 Red. masses --      1.2792                 1.1724                 1.4060
 Frc consts  --      1.4499                 1.3498                 1.6899
 IR Inten    --     33.7766                 2.3798                20.7515

                     37                     38                     39
                      A                      A                      A
 Frequencies --   1456.9563              1482.3127              1490.3963
 Red. masses --      1.0956                 1.0946                 1.0899
 Frc consts  --      1.3702                 1.4170                 1.4264
 IR Inten    --      7.5592                15.5765                 2.9932

                     40                     41                     42
                      A                      A                      A
 Frequencies --   1511.2063              1657.3773              1662.7116
 Red. masses --      1.0852                 1.0885                 1.0880
 Frc consts  --      1.4602                 1.7616                 1.7722
 IR Inten    --      2.3055                34.7893                35.2899

                     43                     44                     45
                      A                      A                      A
 Frequencies --   2972.1193              3039.6898              3053.9408
 Red. masses --      1.0722                 1.0615                 1.0619
 Frc consts  --      5.5803                 5.7785                 5.8350
 IR Inten    --    109.2160                47.0599                16.2669

                     46                     47                     48
                      A                      A                      A
 Frequencies --   3071.4671              3083.0580              3085.1162
 Red. masses --      1.0670                 1.0831                 1.1020
 Frc consts  --      5.9305                 6.0660                 6.1799
 IR Inten    --     13.0178                52.6060                43.5933

                     49                     50                     51
                      A                      A                      A
 Frequencies --   3117.7116              3140.0807              3475.8722
 Red. masses --      1.1053                 1.1071                 1.0498
 Frc consts  --      6.3298                 6.4318                 7.4730
 IR Inten    --     21.7204                17.8738                 0.8611

                     52                     53                     54
                      A                      A                      A
 Frequencies --   3488.8413              3555.2822              3571.4888
 Red. masses --      1.0509                 1.0918                 1.0920
 Frc consts  --      7.5368                 8.1308                 8.2066
 IR Inten    --      0.4066                 0.7468                 1.2562

 - Thermochemistry -
 -------------------
 Temperature   298.150 Kelvin.  Pressure   1.00000 Atm.
 Atom     1 has atomic number  7 and mass  14.00307

 Molecular mass:   152.04419 amu.
 Principal axes and moments of inertia in atomic units:
                           1         2         3
     Eigenvalues --   592.547273081.767553278.99606
           X            0.99999  -0.00440   0.00049
           Y            0.00440   0.99997  -0.00610
           Z           -0.00047   0.00610   0.99998
 This molecule is an asymmetric top.
 Rotational symmetry number  1.
 Warning -- assumption of classical behavior for rotation
           may cause significant error
 Rotational temperatures (Kelvin)      0.14617     0.02811     0.02641
 Rotational constants (GHZ):           3.04573     0.58562     0.55039
 Zero-point vibrational energy     448463.9 (Joules/Mol)
                                  107.18544 (Kcal/Mol)
 Warning -- explicit consideration of  15 degrees of freedom as
           vibrations may cause significant error
 Vibrational temperatures:     45.39    62.89    85.20   168.74   197.29
          (Kelvin)            223.70   311.12   360.82   406.33   413.24
                              497.40   636.82   675.28   723.54   891.71
                              956.04  1186.45  1204.60  1262.34  1300.67
                             1325.92  1354.50  1457.25  1466.78  1563.25
                             1571.35  1611.50  1650.05  1786.86  1796.38
                             1875.03  1885.11  1920.44  1995.53  2011.20
                             2055.00  2096.24  2132.72  2144.35  2174.29
                             2384.60  2392.27  4276.22  4373.44  4393.94
                             4419.16  4435.83  4438.79  4485.69  4517.88
                             5001.00  5019.66  5115.26  5138.58

 Zero-point correction=                           0.170811 (Hartree/Particle)
 Thermal correction to Energy=                    0.182087
 Thermal correction to Enthalpy=                  0.183031
 Thermal correction to Gibbs Free Energy=         0.131957
 Sum of electronic and zero-point Energies=          -1065.383404
 Sum of electronic and thermal Energies=             -1065.372128
 Sum of electronic and thermal Enthalpies=           -1065.371184
 Sum of electronic and thermal Free Energies=        -1065.422257

                     E (Thermal)             CV                S
                      KCal/Mol        Cal/Mol-Kelvin    Cal/Mol-Kelvin
 Total                  114.261             38.480            107.494
 Electronic               0.000              0.000              0.000
 Translational            0.889              2.981             40.967
 Rotational               0.889              2.981             30.172
 Vibrational            112.484             32.519             36.355
 Vibration     1          0.594              1.983              5.730
 Vibration     2          0.595              1.980              5.084
 Vibration     3          0.597              1.974              4.483
 Vibration     4          0.608              1.935              3.145
 Vibration     5          0.614              1.916              2.844
 Vibration     6          0.620              1.897              2.604
 Vibration     7          0.645              1.816              1.990
 Vibration     8          0.663              1.761              1.725
 Vibration     9          0.681              1.706              1.519
 Vibration    10          0.684              1.697              1.490
 Vibration    11          0.724              1.584              1.186
 Vibration    12          0.802              1.377              0.818
 Vibration    13          0.826              1.318              0.739
 Vibration    14          0.858              1.244              0.651
 Vibration    15          0.980              0.990              0.417

 Optimization completed.
    -- Stationary point found.
 Normal termination of Gaussian 16 at Thu Jul 11 17:50:20 2024.
 Gaussian 16:  EM64L-G16RevA.03 25-Dec-2016

 ----------------------------------------------------------------------
 # TD(NStates=10, Root=1) B3LYP/6-31G** SCRF=(Solvent=water) volume pop
 =NPA density=current Geom=AllCheck Guess=Read
 ----------------------------------------------------------------------

 Structure from the checkpoint file:  "APQPRKLAWCIJEK-UHFFFAOYSA-N_conf_3_2.chk"
 ----------------------------------
 APQPRKLAWCIJEK-UHFFFAOYSA-N_conf_3
 ----------------------------------
 Charge =  0 Multiplicity = 1

                         Standard orientation:
 ---------------------------------------------------------------------
 Center     Atomic      Atomic             Coordinates (Angstroms)
 Number     Number       Type             X           Y           Z
 ---------------------------------------------------------------------
      1          7           0       -3.580766    0.932196   -0.537973
      2          6           0       -2.605135    1.010511    0.548762
      3          6           0       -1.958514   -0.309266    0.990483
      4         16           0       -0.986316   -1.172587   -0.325560
      5         16           0        0.671787    0.059928   -0.645598
      6          6           0        1.891842   -0.553455    0.613181
      7          6           0        3.308475   -0.198711    0.171993
      8          7           0        3.428805    1.240275   -0.088183
      9          1           0       -4.324670    0.286536   -0.276583
     10          1           0       -3.132794    0.515179   -1.352673
     11          1           0       -3.098901    1.443460    1.427998
     12          1           0       -1.816131    1.713267    0.257460
     13          1           0       -1.313576   -0.164602    1.861844
     14          1           0       -2.725558   -1.045541    1.259338
     15          1           0        1.655043   -0.097808    1.579071
     16          1           0        1.774369   -1.635804    0.698325
     17          1           0        3.999904   -0.577669    0.943353
     18          1           0        3.542097   -0.730815   -0.756326
     19          1           0        3.361229    1.751810    0.790115
     20          1           0        4.355176    1.442757   -0.456810
 ---------------------------------------------------------------------

 SCF Done:  E(RB3LYP) =  -1065.55421463     A.U. after    1 cycles

 Excitation energies and oscillator strengths:

 Excited State   1:      Singlet-A      4.5384 eV  273.19 nm  f=0.0258  <S**2>=0.000
      38 -> 42        -0.17575
      41 -> 42         0.67805
 This state for optimization and/or second-order correction.
 Total Energy, E(TD-HF/TD-DFT) =  -1065.38742976
 Copying the excited state density for this state as the 1-particle RhoCI density.

 Excited State   2:      Singlet-A      4.7566 eV  260.66 nm  f=0.0005  <S**2>=0.000
      39 -> 42         0.27288
      40 -> 42         0.64381

 Excited State   3:      Singlet-A      5.2401 eV  236.61 nm  f=0.0071  <S**2>=0.000
      39 -> 42         0.64919
      40 -> 42        -0.27381

 Excited State   4:      Singlet-A      5.4325 eV  228.23 nm  f=0.0368  <S**2>=0.000
      38 -> 42         0.67651
      41 -> 42         0.18262

 Excited State   5:      Singlet-A      6.3550 eV  195.10 nm  f=0.0262  <S**2>=0.000
      40 -> 43         0.26890
      40 -> 44         0.11404
      41 -> 43         0.61619
      41 -> 44         0.11847

 Excited State   6:      Singlet-A      6.5073 eV  190.53 nm  f=0.0107  <S**2>=0.000
      38 -> 44        -0.17891
      40 -> 43         0.12853
      40 -> 44        -0.17488
      41 -> 43        -0.13430
      41 -> 44         0.62391

 Excited State   7:      Singlet-A      6.7232 eV  184.41 nm  f=0.0943  <S**2>=0.000
      37 -> 42        -0.13563
      39 -> 43         0.27855
      39 -> 44         0.12599
      40 -> 43         0.50135
      40 -> 44         0.22669
      41 -> 43        -0.25580
      41 -> 44        -0.10514

 Excited State   8:      Singlet-A      6.8553 eV  180.86 nm  f=0.0248  <S**2>=0.000
      37 -> 42        -0.28310
      39 -> 43        -0.12385
      39 -> 44         0.19592
      40 -> 43        -0.24101
      40 -> 44         0.51360
      41 -> 44         0.18964

 Excited State   9:      Singlet-A      6.9982 eV  177.16 nm  f=0.0385  <S**2>=0.000
      37 -> 42         0.10005
      38 -> 43        -0.24264
      38 -> 44        -0.16621
      39 -> 43         0.53265
      39 -> 44        -0.12861
      40 -> 43        -0.28996
      40 -> 44         0.10211

 Excited State  10:      Singlet-A      7.0362 eV  176.21 nm  f=0.1328  <S**2>=0.000
      37 -> 42         0.27384
      38 -> 43        -0.33656
      38 -> 44         0.12577
      39 -> 44         0.51458
      40 -> 44        -0.10511

 The electronic state is 1-A.
 Alpha  occ. eigenvalues --  -88.89225 -88.89186 -14.31922 -14.31348 -10.21703
 Alpha  occ. eigenvalues --  -10.21516 -10.21455 -10.21203  -7.95309  -7.95285
 Alpha  occ. eigenvalues --   -5.91865  -5.91846  -5.91409  -5.91394  -5.90749
 Alpha  occ. eigenvalues --   -5.90716  -0.88666  -0.88244  -0.81159  -0.76147
 Alpha  occ. eigenvalues --   -0.70835  -0.64886  -0.60261  -0.56828  -0.49519
 Alpha  occ. eigenvalues --   -0.49206  -0.46787  -0.45009  -0.43841  -0.42673
 Alpha  occ. eigenvalues --   -0.40786  -0.39525  -0.37703  -0.36561  -0.35543
 Alpha  occ. eigenvalues --   -0.33625  -0.31691  -0.25649  -0.24411  -0.24331
 Alpha  occ. eigenvalues --   -0.22997
 Alpha virt. eigenvalues --   -0.02325   0.04231   0.04794   0.08212   0.09173
 Alpha virt. eigenvalues --    0.11713   0.13238   0.13601   0.14414   0.15234
 Alpha virt. eigenvalues --    0.16124   0.17446   0.18395   0.18572   0.19793

 Mulliken charges:
               1
     1  N   -0.611753
     2  C   -0.064008
     3  C   -0.319269
     4  S   -0.153551
     5  S   -0.076322
     6  C   -0.322273
     7  C   -0.059122
     8  N   -0.573914
     9  H    0.260272
    10  H    0.265107
    11  H    0.132474
    12  H    0.127030
    13  H    0.145400
    14  H    0.150889
    15  H    0.153387
    16  H    0.151950
    17  H    0.128366
    18  H    0.129646
    19  H    0.266004
    20  H    0.269687
 Sum of Mulliken charges =  -0.00000

 Dipole moment (field-independent basis, Debye):
    X=              3.6675    Y=             -0.0145    Z=              4.6890  Tot=              5.9529
 Quadrupole moment (field-independent basis, Debye-Ang):
   XX=            -45.1505   YY=            -70.3181   ZZ=            -63.7573
   XY=              4.0653   XZ=              0.7103   YZ=              2.3885

 Summary of Natural Population Analysis:

                                       Natural Population
                Natural  -----------------------------------------------
    Atom  No    Charge         Core      Valence    Rydberg      Total
 -----------------------------------------------------------------------
      N    1   -0.89632      1.99968     5.88160    0.01504     7.89632
      C    2   -0.28183      1.99931     4.26428    0.01823     6.28183
      C    3   -0.61882      1.99928     4.60626    0.01328     6.61882
      S    4   -0.04756      9.99932     5.98584    0.06240    16.04756
      S    5    0.00786      9.99931     5.93674    0.05609    15.99214
      C    6   -0.60344      1.99928     4.59011    0.01405     6.60344
      C    7   -0.28423      1.99931     4.26895    0.01597     6.28423
      N    8   -0.85833      1.99964     5.84384    0.01485     7.85833
      H    9    0.39001      0.00000     0.60710    0.00289     0.60999
      H   10    0.39270      0.00000     0.60430    0.00299     0.60730
      H   11    0.25045      0.00000     0.74745    0.00211     0.74955
      H   12    0.23734      0.00000     0.76035    0.00232     0.76266
      H   13    0.25774      0.00000     0.73858    0.00368     0.74226
      H   14    0.26262      0.00000     0.73484    0.00254     0.73738
      H   15    0.25538      0.00000     0.74155    0.00306     0.74462
      H   16    0.25694      0.00000     0.73849    0.00457     0.74306
      H   17    0.24355      0.00000     0.75335    0.00310     0.75645
      H   18    0.24191      0.00000     0.75572    0.00238     0.75809
      H   19    0.39302      0.00000     0.60347    0.00351     0.60698
      H   20    0.40100      0.00000     0.59587    0.00313     0.59900
 =======================================================================
   * Total *   -0.00000     31.99512    49.75870    0.24618    82.00000

 Normal termination of Gaussian 16 at Thu Jul 11 18:04:43 2024.
