 Gaussian 16, Revision A.03,

 -------------------------------------------------------
 # opt=CalcFc B3LYP/6-31G** SCRF=(Solvent=water) scf=xqc
 -------------------------------------------------------

 ----------------------------------
 CJKRXEBLWJVYJD-UHFFFAOYSA-N_conf_4
 ----------------------------------
 Symbolic Z-matrix:
 Charge =  0 Multiplicity = 1

 SCF Done:  E(RB3LYP) =  -347.784994443     A.U. after   11 cycles
 SCF Done:  E(RB3LYP) =  -347.788112929     A.U. after    9 cycles
 SCF Done:  E(RB3LYP) =  -347.788418737     A.U. after   10 cycles
 SCF Done:  E(RB3LYP) =  -347.788442916     A.U. after    9 cycles
 SCF Done:  E(RB3LYP) =  -347.788451051     A.U. after    7 cycles
 SCF Done:  E(RB3LYP) =  -347.788451535     A.U. after    7 cycles
 SCF Done:  E(RB3LYP) =  -347.788451574     A.U. after    6 cycles
 Optimization completed.
    -- Stationary point found.
 Normal termination of Gaussian 16 at Wed Jul 17 14:37:56 2024.

 ----------------------------------------------------------------------
 # freq B3LYP/6-31G** SCRF=(Solvent=water) volume NMR pop=NPA density=c
 urrent Geom=AllCheck Guess=Read
 ----------------------------------------------------------------------

 Structure from the checkpoint file:  "CJKRXEBLWJVYJD-UHFFFAOYSA-N_conf_4_1.chk"
 ----------------------------------
 CJKRXEBLWJVYJD-UHFFFAOYSA-N_conf_4
 ----------------------------------
 Charge =  0 Multiplicity = 1

 SCF Done:  E(RB3LYP) =  -347.788451574     A.U. after    1 cycles

      1  C    Isotropic =   175.2724   Anisotropy =    25.5775

      2  C    Isotropic =   146.5705   Anisotropy =    41.7235

      3  N    Isotropic =   214.4819   Anisotropy =    38.2430

      4  C    Isotropic =   140.8285   Anisotropy =    45.1504

      5  C    Isotropic =   142.3719   Anisotropy =    48.3345

      6  N    Isotropic =   214.8036   Anisotropy =    40.7218

      7  C    Isotropic =   148.0582   Anisotropy =    39.5339

      8  C    Isotropic =   174.6774   Anisotropy =    26.1393

      9  H    Isotropic =    30.8572   Anisotropy =     8.1719

     10  H    Isotropic =    30.6738   Anisotropy =     9.9478

     11  H    Isotropic =    30.6879   Anisotropy =     8.1963

     12  H    Isotropic =    29.2273   Anisotropy =     7.0323

     13  H    Isotropic =    29.0865   Anisotropy =     5.1778

     14  H    Isotropic =    31.2131   Anisotropy =    12.3962

     15  H    Isotropic =    28.4091   Anisotropy =     7.2921

     16  H    Isotropic =    29.5339   Anisotropy =     4.7950

     17  H    Isotropic =    28.8079   Anisotropy =     7.2510

     18  H    Isotropic =    29.3964   Anisotropy =     4.6696

     19  H    Isotropic =    31.7025   Anisotropy =    10.4534

     20  H    Isotropic =    28.5750   Anisotropy =     6.2883

     21  H    Isotropic =    29.5755   Anisotropy =     6.1691

     22  H    Isotropic =    30.6961   Anisotropy =     8.2707

     23  H    Isotropic =    30.7091   Anisotropy =     9.9261

     24  H    Isotropic =    30.8962   Anisotropy =     7.9458

  Exact polarizability: 117.258  -3.438  93.982  -0.959  -2.121  93.184
 Approx polarizability: 110.951  -2.562 104.279  -0.823  -3.088 103.080

                      1                      2                      3
                      A                      A                      A
 Frequencies --     40.0156                58.7665                77.6742
 Red. masses --      3.0510                 2.0475                 1.9850
 Frc consts  --      0.0029                 0.0042                 0.0071
 IR Inten    --      0.1221                 0.0850                 0.6169

                      4                      5                      6
                      A                      A                      A
 Frequencies --     86.7029               136.4040               244.0094
 Red. masses --      2.4443                 2.7772                 1.3550
 Frc consts  --      0.0108                 0.0304                 0.0475
 IR Inten    --      0.5002                 1.5776                 0.7180

                      7                      8                      9
                      A                      A                      A
 Frequencies --    253.4749               273.9030               287.2664
 Red. masses --      1.1786                 1.6917                 2.1275
 Frc consts  --      0.0446                 0.0748                 0.1034
 IR Inten    --      0.7697                 0.8772                 8.9011

                     10                     11                     12
                      A                      A                      A
 Frequencies --    305.0826               309.4771               464.4719
 Red. masses --      2.5710                 2.7248                 3.0606
 Frc consts  --      0.1410                 0.1538                 0.3890
 IR Inten    --      8.6872                 0.6019                 3.4434

                     13                     14                     15
                      A                      A                      A
 Frequencies --    583.8788               748.6127               766.9596
 Red. masses --      3.0524                 1.3063                 1.4668
 Frc consts  --      0.6131                 0.4313                 0.5084
 IR Inten    --     14.5776               138.5688               115.5464

                     16                     17                     18
                      A                      A                      A
 Frequencies --    789.2142               819.1557               825.5680
 Red. masses --      1.2411                 1.1430                 1.2209
 Frc consts  --      0.4555                 0.4519                 0.4903
 IR Inten    --     32.9127                 3.4196                 3.5034

                     19                     20                     21
                      A                      A                      A
 Frequencies --    893.5877               910.3044              1012.4574
 Red. masses --      1.6104                 1.5099                 2.9323
 Frc consts  --      0.7576                 0.7372                 1.7710
 IR Inten    --      4.9055                11.7569                26.7675

                     22                     23                     24
                      A                      A                      A
 Frequencies --   1029.9164              1039.1167              1057.9482
 Red. masses --      2.3437                 2.7729                 1.6125
 Frc consts  --      1.4647                 1.7640                 1.0634
 IR Inten    --      3.8732                 5.2993                 3.8787

                     25                     26                     27
                      A                      A                      A
 Frequencies --   1118.0724              1132.2095              1139.2854
 Red. masses --      1.7207                 2.0987                 3.6657
 Frc consts  --      1.2674                 1.5851                 2.8033
 IR Inten    --      5.7022                26.3657               131.6651

                     28                     29                     30
                      A                      A                      A
 Frequencies --   1157.9234              1178.8522              1217.6325
 Red. masses --      2.1872                 1.6892                 2.1378
 Frc consts  --      1.7278                 1.3831                 1.8674
 IR Inten    --     10.3707                 5.1264                 3.1833

                     31                     32                     33
                      A                      A                      A
 Frequencies --   1271.1703              1297.6393              1320.0365
 Red. masses --      1.3213                 1.1435                 1.1833
 Frc consts  --      1.2580                 1.1344                 1.2149
 IR Inten    --     14.5741                 9.0208                24.1015

                     34                     35                     36
                      A                      A                      A
 Frequencies --   1335.6774              1353.0910              1388.4537
 Red. masses --      1.1672                 1.2325                 1.2804
 Frc consts  --      1.2268                 1.3295                 1.4543
 IR Inten    --      2.8288                 8.2069                14.4343

                     37                     38                     39
                      A                      A                      A
 Frequencies --   1396.2440              1419.5442              1421.2802
 Red. masses --      1.2492                 1.3158                 1.3407
 Frc consts  --      1.4348                 1.5622                 1.5957
 IR Inten    --      3.0055                 1.7734                18.3377

                     40                     41                     42
                      A                      A                      A
 Frequencies --   1425.0974              1481.1609              1486.3251
 Red. masses --      1.3353                 1.1032                 1.1222
 Frc consts  --      1.5978                 1.4259                 1.4607
 IR Inten    --      3.5585                 7.6726                 3.2196

                     43                     44                     45
                      A                      A                      A
 Frequencies --   1489.8491              1499.7937              1500.8976
 Red. masses --      1.0912                 1.0482                 1.0410
 Frc consts  --      1.4270                 1.3891                 1.3816
 IR Inten    --      5.2820                 5.1529                11.9334

                     46                     47                     48
                      A                      A                      A
 Frequencies --   1503.3295              1508.8064              1512.2654
 Red. masses --      1.0814                 1.1731                 1.1313
 Frc consts  --      1.4400                 1.5735                 1.5243
 IR Inten    --      9.7324                16.1640                 4.2975

                     49                     50                     51
                      A                      A                      A
 Frequencies --   1530.2961              1533.2916              2923.5749
 Red. masses --      1.0923                 1.0926                 1.0726
 Frc consts  --      1.5071                 1.5134                 5.4018
 IR Inten    --      7.2470                 4.5151               107.8708

                     52                     53                     54
                      A                      A                      A
 Frequencies --   2931.8646              2956.9215              3032.0074
 Red. masses --      1.0738                 1.0717                 1.0597
 Frc consts  --      5.4383                 5.5209                 5.7399
 IR Inten    --    163.7870               116.5056                61.3516

                     55                     56                     57
                      A                      A                      A
 Frequencies --   3038.8350              3039.2898              3043.0732
 Red. masses --      1.0398                 1.0375                 1.0851
 Frc consts  --      5.6572                 5.6464                 5.9203
 IR Inten    --     33.3443                22.1162                60.7821

                     58                     59                     60
                      A                      A                      A
 Frequencies --   3057.5724              3069.7044              3087.4616
 Red. masses --      1.0868                 1.0954                 1.0968
 Frc consts  --      5.9860                 6.0814                 6.1602
 IR Inten    --     50.6873                12.0555               112.2174

                     61                     62                     63
                      A                      A                      A
 Frequencies --   3105.9342              3106.9623              3120.6309
 Red. masses --      1.1012                 1.1008                 1.1032
 Frc consts  --      6.2591                 6.2607                 6.3299
 IR Inten    --     65.7220                72.6070                53.6395

                     64                     65                     66
                      A                      A                      A
 Frequencies --   3122.5241              3493.3636              3506.8357
 Red. masses --      1.1030                 1.0737                 1.0746
 Frc consts  --      6.3364                 7.7204                 7.7865
 IR Inten    --     48.7264                 1.4060                 0.7790

 - Thermochemistry -
 -------------------
 Temperature   298.150 Kelvin.  Pressure   1.00000 Atm.
 Atom     1 has atomic number  6 and mass  12.00000

 Molecular mass:   116.13135 amu.
 Principal axes and moments of inertia in atomic units:
                           1         2         3
     Eigenvalues --   210.892733027.086443098.23193
           X            0.99998  -0.00551  -0.00048
           Y            0.00550   0.99996  -0.00729
           Z            0.00052   0.00729   0.99997
 This molecule is an asymmetric top.
 Rotational symmetry number  1.
 Rotational temperatures (Kelvin)      0.41070     0.02861     0.02796
 Rotational constants (GHZ):           8.55763     0.59620     0.58251
 Zero-point vibrational energy     587777.6 (Joules/Mol)
                                  140.48223 (Kcal/Mol)
 Warning -- explicit consideration of  13 degrees of freedom as
           vibrations may cause significant error
 Vibrational temperatures:     57.57    84.55   111.76   124.75   196.25
          (Kelvin)            351.08   364.69   394.09   413.31   438.95
                              445.27   668.27   840.07  1077.09  1103.48
                             1135.50  1178.58  1187.81  1285.67  1309.72
                             1456.70  1481.82  1495.06  1522.15  1608.66
                             1629.00  1639.18  1665.99  1696.11  1751.90
                             1828.93  1867.01  1899.24  1921.74  1946.80
                             1997.68  2008.88  2042.41  2044.91  2050.40
                             2131.06  2138.49  2143.56  2157.87  2159.46
                             2162.96  2170.84  2175.81  2201.75  2206.06
                             4206.37  4218.30  4254.35  4362.38  4372.21
                             4372.86  4378.30  4399.16  4416.62  4442.17
                             4468.75  4470.23  4489.89  4492.62  5026.17
                             5045.55

 Zero-point correction=                           0.223873 (Hartree/Particle)
 Thermal correction to Energy=                    0.234596
 Thermal correction to Enthalpy=                  0.235540
 Thermal correction to Gibbs Free Energy=         0.186900
 Sum of electronic and zero-point Energies=           -347.564579
 Sum of electronic and thermal Energies=              -347.553856
 Sum of electronic and thermal Enthalpies=            -347.552911
 Sum of electronic and thermal Free Energies=         -347.601551

                     E (Thermal)             CV                S
                      KCal/Mol        Cal/Mol-Kelvin    Cal/Mol-Kelvin
 Total                  147.211             37.494            102.371
 Electronic               0.000              0.000              0.000
 Translational            0.889              2.981             40.164
 Rotational               0.889              2.981             29.071
 Vibrational            145.434             31.532             33.136
 Vibration     1          0.594              1.981              5.258
 Vibration     2          0.596              1.974              4.498
 Vibration     3          0.599              1.964              3.949
 Vibration     4          0.601              1.958              3.733
 Vibration     5          0.614              1.917              2.854
 Vibration     6          0.659              1.773              1.773
 Vibration     7          0.665              1.757              1.706
 Vibration     8          0.676              1.722              1.571
 Vibration     9          0.684              1.697              1.490
 Vibration    10          0.696              1.664              1.389
 Vibration    11          0.699              1.656              1.365
 Vibration    12          0.822              1.329              0.753
 Vibration    13          0.941              1.066              0.478

 Optimization completed.
    -- Stationary point found.
 Normal termination of Gaussian 16 at Wed Jul 17 14:43:02 2024.
 Gaussian 16:  ES64L-G16RevA.03 25-Dec-2016

 ----------------------------------------------------------------------
 # TD(NStates=10, Root=1) B3LYP/6-31G** SCRF=(Solvent=water) volume pop
 =NPA density=current Geom=AllCheck Guess=Read
 ----------------------------------------------------------------------

 Structure from the checkpoint file:  "CJKRXEBLWJVYJD-UHFFFAOYSA-N_conf_4_2.chk"
 ----------------------------------
 CJKRXEBLWJVYJD-UHFFFAOYSA-N_conf_4
 ----------------------------------
 Charge =  0 Multiplicity = 1

                         Standard orientation:
 ---------------------------------------------------------------------
 Center     Atomic      Atomic             Coordinates (Angstroms)
 Number     Number       Type             X           Y           Z
 ---------------------------------------------------------------------
      1          6           0        4.112138   -0.127355   -0.132462
      2          6           0        2.687624   -0.324335    0.379425
      3          7           0        1.771374    0.645194   -0.230123
      4          6           0        0.393465    0.563914    0.267571
      5          6           0       -0.409533   -0.539920   -0.447514
      6          7           0       -1.786121   -0.738309    0.010555
      7          6           0       -2.690350    0.394302   -0.212613
      8          6           0       -4.119456    0.031673    0.186209
      9          1           0        4.488642    0.869410    0.125925
     10          1           0        4.789540   -0.863747    0.310616
     11          1           0        4.152131   -0.230999   -1.221259
     12          1           0        2.678147   -0.266737    1.484279
     13          1           0        2.347309   -1.334666    0.123590
     14          1           0        2.129510    1.577172   -0.032961
     15          1           0       -0.084058    1.532423    0.086673
     16          1           0        0.348627    0.385819    1.359532
     17          1           0        0.115900   -1.496357   -0.338472
     18          1           0       -0.431696   -0.316282   -1.521563
     19          1           0       -1.776923   -0.961697    1.004832
     20          1           0       -2.390449    1.312788    0.321090
     21          1           0       -2.655876    0.636469   -1.283029
     22          1           0       -4.468439   -0.842674   -0.371982
     23          1           0       -4.801471    0.865244   -0.009102
     24          1           0       -4.180992   -0.204045    1.255103
 ---------------------------------------------------------------------

 SCF Done:  E(RB3LYP) =  -347.788451574     A.U. after    1 cycles

 Excitation energies and oscillator strengths:

 Excited State   1:      Singlet-A      7.0487 eV  175.90 nm  f=0.0100  <S**2>=0.000
      32 -> 34         0.17000
      33 -> 34         0.63905
      33 -> 35        -0.21369
 This state for optimization and/or second-order correction.
 Total Energy, E(TD-HF/TD-DFT) =  -347.529418305
 Copying the excited state density for this state as the 1-particle RhoCI density.

 Excited State   2:      Singlet-A      7.1509 eV  173.38 nm  f=0.0161  <S**2>=0.000
      32 -> 34        -0.14082
      32 -> 35        -0.28335
      33 -> 34         0.20325
      33 -> 35         0.58654

 Excited State   3:      Singlet-A      7.7009 eV  161.00 nm  f=0.0150  <S**2>=0.000
      32 -> 35         0.45448
      33 -> 35         0.25336
      33 -> 36        -0.42308
      33 -> 37        -0.10694

 Excited State   4:      Singlet-A      7.7399 eV  160.19 nm  f=0.0465  <S**2>=0.000
      32 -> 35         0.39403
      33 -> 34         0.11314
      33 -> 35         0.10351
      33 -> 36         0.52896
      33 -> 37        -0.11280
      33 -> 38         0.10622

 Excited State   5:      Singlet-A      7.7657 eV  159.66 nm  f=0.0357  <S**2>=0.000
      32 -> 34         0.64306
      32 -> 35        -0.10740
      33 -> 34        -0.13335
      33 -> 35         0.14592
      33 -> 37         0.12277

 Excited State   6:      Singlet-A      8.0265 eV  154.47 nm  f=0.0430  <S**2>=0.000
      32 -> 35        -0.10534
      32 -> 36         0.34933
      33 -> 38         0.57446

 Excited State   7:      Singlet-A      8.1533 eV  152.07 nm  f=0.0205  <S**2>=0.000
      32 -> 36         0.35660
      33 -> 37         0.55305
      33 -> 38        -0.13374

 Excited State   8:      Singlet-A      8.3148 eV  149.11 nm  f=0.0305  <S**2>=0.000
      32 -> 35        -0.11386
      32 -> 36         0.45758
      32 -> 39         0.13805
      33 -> 37        -0.35905
      33 -> 38        -0.32108

 Excited State   9:      Singlet-A      8.5327 eV  145.30 nm  f=0.0161  <S**2>=0.000
      32 -> 37        -0.35133
      32 -> 38        -0.26854
      33 -> 39         0.53018

 Excited State  10:      Singlet-A      8.6412 eV  143.48 nm  f=0.0407  <S**2>=0.000
      32 -> 37        -0.33504
      32 -> 38         0.49619
      33 -> 38        -0.10870
      33 -> 40         0.31520

 The electronic state is 1-A.
 Alpha  occ. eigenvalues --  -14.31353 -14.31227 -10.20251 -10.20218 -10.19858
 Alpha  occ. eigenvalues --  -10.19838 -10.17279 -10.17148  -0.90282  -0.88581
 Alpha  occ. eigenvalues --   -0.75502  -0.73377  -0.67952  -0.61853  -0.59959
 Alpha  occ. eigenvalues --   -0.58041  -0.48726  -0.47484  -0.45067  -0.44988
 Alpha  occ. eigenvalues --   -0.43730  -0.42167  -0.40505  -0.38259  -0.36539
 Alpha  occ. eigenvalues --   -0.35859  -0.35675  -0.34564  -0.34476  -0.33751
 Alpha  occ. eigenvalues --   -0.32056  -0.22879  -0.21066
 Alpha virt. eigenvalues --    0.09087   0.09130   0.11109   0.12120   0.12537
 Alpha virt. eigenvalues --    0.14020   0.14895   0.15646   0.16895   0.17328
 Alpha virt. eigenvalues --    0.18020   0.18837   0.19369   0.19574   0.21708

 Mulliken charges:
               1
     1  C   -0.336659
     2  C   -0.039203
     3  N   -0.498536
     4  C   -0.007090
     5  C   -0.053646
     6  N   -0.148423
     7  C   -0.005692
     8  C   -0.316201
     9  H    0.110344
    10  H    0.112226
    11  H    0.114267
    12  H    0.097964
    13  H    0.109264
    14  H    0.273415
    15  H    0.074379
    16  H    0.036296
    17  H    0.062865
    18  H    0.112205
    19  H   -0.069827
    20  H    0.041930
    21  H    0.078983
    22  H    0.101930
    23  H    0.085120
    24  H    0.064090
 Sum of Mulliken charges =  -0.00000

 Dipole moment (field-independent basis, Debye):
    X=              2.2386    Y=              0.9617    Z=             -0.6489  Tot=              2.5214
 Quadrupole moment (field-independent basis, Debye-Ang):
   XX=            -53.7130   YY=            -53.0548   ZZ=            -58.0957
   XY=              0.5420   XZ=              4.8748   YZ=              1.5593

 Summary of Natural Population Analysis:

                                       Natural Population
                Natural  -----------------------------------------------
    Atom  No    Charge         Core      Valence    Rydberg      Total
 -----------------------------------------------------------------------
      C    1   -0.70163      1.99946     4.69432    0.00786     6.70163
      C    2   -0.27192      1.99937     4.25798    0.01457     6.27192
      N    3   -0.66038      1.99950     5.64611    0.01478     7.66038
      C    4   -0.28668      1.99925     4.26542    0.02201     6.28668
      C    5   -0.34949      1.99935     4.32751    0.02263     6.34949
      N    6   -0.27646      1.99938     5.25923    0.01786     7.27646
      C    7   -0.33583      1.99935     4.31838    0.01810     6.33583
      C    8   -0.71523      1.99946     4.70372    0.01206     6.71523
      H    9    0.23044      0.00000     0.76767    0.00188     0.76956
      H   10    0.24305      0.00000     0.75544    0.00151     0.75695
      H   11    0.23587      0.00000     0.76207    0.00205     0.76413
      H   12    0.21512      0.00000     0.78173    0.00315     0.78488
      H   13    0.22425      0.00000     0.77039    0.00536     0.77575
      H   14    0.41058      0.00000     0.58618    0.00324     0.58942
      H   15    0.21619      0.00000     0.76492    0.01889     0.78381
      H   16    0.17851      0.00000     0.79162    0.02987     0.82149
      H   17    0.20492      0.00000     0.76921    0.02587     0.79508
      H   18    0.23738      0.00000     0.74794    0.01467     0.76262
      H   19    0.14405      0.00000     0.75221    0.10375     0.85595
      H   20    0.18869      0.00000     0.76837    0.04294     0.81131
      H   21    0.21701      0.00000     0.75984    0.02315     0.78299
      H   22    0.22997      0.00000     0.76313    0.00690     0.77003
      H   23    0.21916      0.00000     0.77138    0.00946     0.78084
      H   24    0.20244      0.00000     0.77777    0.01979     0.79756
 =======================================================================
   * Total *    0.00000     15.99512    49.56254    0.44234    66.00000

 Normal termination of Gaussian 16 at Wed Jul 17 14:49:07 2024.
