 Gaussian 16, Revision A.03,

 -------------------------------------------------------
 # opt=CalcFc B3LYP/6-31G** SCRF=(Solvent=water) scf=xqc
 -------------------------------------------------------

 ----------------------------------
 CJKRXEBLWJVYJD-UHFFFAOYSA-N_conf_0
 ----------------------------------
 Symbolic Z-matrix:
 Charge =  0 Multiplicity = 1

 SCF Done:  E(RB3LYP) =  -347.785095603     A.U. after   11 cycles
 SCF Done:  E(RB3LYP) =  -347.788385459     A.U. after    9 cycles
 SCF Done:  E(RB3LYP) =  -347.788956103     A.U. after   10 cycles
 SCF Done:  E(RB3LYP) =  -347.788763487     A.U. after   10 cycles
 SCF Done:  E(RB3LYP) =  -347.789058790     A.U. after   10 cycles
 SCF Done:  E(RB3LYP) =  -347.789062733     A.U. after    7 cycles
 SCF Done:  E(RB3LYP) =  -347.789062960     A.U. after    7 cycles
 Optimization completed.
    -- Stationary point found.
 Normal termination of Gaussian 16 at Wed Jul 17 14:39:15 2024.

 ----------------------------------------------------------------------
 # freq B3LYP/6-31G** SCRF=(Solvent=water) volume NMR pop=NPA density=c
 urrent Geom=AllCheck Guess=Read
 ----------------------------------------------------------------------

 Structure from the checkpoint file:  "CJKRXEBLWJVYJD-UHFFFAOYSA-N_conf_0_1.chk"
 ----------------------------------
 CJKRXEBLWJVYJD-UHFFFAOYSA-N_conf_0
 ----------------------------------
 Charge =  0 Multiplicity = 1

 SCF Done:  E(RB3LYP) =  -347.789062960     A.U. after    1 cycles

      1  C    Isotropic =   176.2956   Anisotropy =    23.6750

      2  C    Isotropic =   152.0379   Anisotropy =    38.4266

      3  N    Isotropic =   228.3465   Anisotropy =    43.0502

      4  C    Isotropic =   149.3077   Anisotropy =    38.5639

      5  C    Isotropic =   145.4631   Anisotropy =    45.3647

      6  N    Isotropic =   217.5496   Anisotropy =    29.6308

      7  C    Isotropic =   148.1247   Anisotropy =    40.3693

      8  C    Isotropic =   175.2818   Anisotropy =    25.5629

      9  H    Isotropic =    30.9513   Anisotropy =     8.8745

     10  H    Isotropic =    30.9519   Anisotropy =    10.2666

     11  H    Isotropic =    30.5877   Anisotropy =     6.7030

     12  H    Isotropic =    29.3302   Anisotropy =     8.4510

     13  H    Isotropic =    28.8869   Anisotropy =     6.3276

     14  H    Isotropic =    29.6556   Anisotropy =    14.3617

     15  H    Isotropic =    29.5043   Anisotropy =     6.3213

     16  H    Isotropic =    29.0618   Anisotropy =     7.8287

     17  H    Isotropic =    28.5673   Anisotropy =     7.2002

     18  H    Isotropic =    29.5381   Anisotropy =     7.8267

     19  H    Isotropic =    31.2930   Anisotropy =    12.8123

     20  H    Isotropic =    29.0351   Anisotropy =     5.4806

     21  H    Isotropic =    29.2921   Anisotropy =     7.8588

     22  H    Isotropic =    30.6628   Anisotropy =     7.8598

     23  H    Isotropic =    30.8142   Anisotropy =     8.2270

     24  H    Isotropic =    30.6515   Anisotropy =    10.2126

  Exact polarizability: 114.582  -0.566  97.269   3.399  -1.690  93.319
 Approx polarizability: 110.999  -0.726 105.724   3.353  -1.418 103.491

                      1                      2                      3
                      A                      A                      A
 Frequencies --     43.0129                54.0259                77.3279
 Red. masses --      2.5674                 3.3632                 1.7379
 Frc consts  --      0.0028                 0.0058                 0.0061
 IR Inten    --      0.2279                 0.2379                 0.8879

                      4                      5                      6
                      A                      A                      A
 Frequencies --    100.4394               171.6811               211.9713
 Red. masses --      2.5932                 1.8239                 2.6624
 Frc consts  --      0.0154                 0.0317                 0.0705
 IR Inten    --      3.2044                 0.3355                 4.8672

                      7                      8                      9
                      A                      A                      A
 Frequencies --    245.6666               265.3339               301.2017
 Red. masses --      1.3566                 1.2005                 2.0255
 Frc consts  --      0.0482                 0.0498                 0.1083
 IR Inten    --      0.5721                 1.9796                 2.7229

                     10                     11                     12
                      A                      A                      A
 Frequencies --    384.2399               442.0562               456.1900
 Red. masses --      2.1809                 2.1160                 2.0323
 Frc consts  --      0.1897                 0.2436                 0.2492
 IR Inten    --      0.4639                16.8280                 4.1528

                     13                     14                     15
                      A                      A                      A
 Frequencies --    543.7286               759.8544               772.2641
 Red. masses --      2.3421                 1.5769                 1.7369
 Frc consts  --      0.4080                 0.5364                 0.6103
 IR Inten    --     20.2982                93.1146               110.3653

                     16                     17                     18
                      A                      A                      A
 Frequencies --    807.3098               816.6406               843.9233
 Red. masses --      1.1808                 1.2500                 1.6262
 Frc consts  --      0.4534                 0.4912                 0.6824
 IR Inten    --      4.8193                17.6063                 9.8294

                     19                     20                     21
                      A                      A                      A
 Frequencies --    886.8118               912.6088               936.9741
 Red. masses --      1.6862                 1.8193                 2.1146
 Frc consts  --      0.7813                 0.8927                 1.0938
 IR Inten    --     43.3087                10.0424                15.5976

                     22                     23                     24
                      A                      A                      A
 Frequencies --   1030.7241              1046.9925              1060.6381
 Red. masses --      2.2607                 1.7307                 1.8855
 Frc consts  --      1.4151                 1.1178                 1.2497
 IR Inten    --      5.9150                 0.2840                 5.3789

                     25                     26                     27
                      A                      A                      A
 Frequencies --   1100.4062              1123.9774              1138.5790
 Red. masses --      2.0934                 1.8389                 2.7298
 Frc consts  --      1.4935                 1.3687                 2.0850
 IR Inten    --     80.2681                17.7829                54.2347

                     28                     29                     30
                      A                      A                      A
 Frequencies --   1159.9337              1174.9214              1209.5112
 Red. masses --      1.6587                 2.3926                 1.9681
 Frc consts  --      1.3148                 1.9460                 1.6964
 IR Inten    --      7.3122                 9.6706                10.2433

                     31                     32                     33
                      A                      A                      A
 Frequencies --   1279.1746              1292.1892              1301.2177
 Red. masses --      1.2147                 1.2501                 1.1359
 Frc consts  --      1.1710                 1.2299                 1.1332
 IR Inten    --      6.2045                37.1206                10.8606

                     34                     35                     36
                      A                      A                      A
 Frequencies --   1331.3999              1378.1574              1392.0479
 Red. masses --      1.1336                 1.2905                 1.2767
 Frc consts  --      1.1839                 1.4442                 1.4577
 IR Inten    --      9.7976                50.9349                 6.1958

                     37                     38                     39
                      A                      A                      A
 Frequencies --   1402.7506              1404.6904              1416.7387
 Red. masses --      1.3357                 1.2604                 1.3075
 Frc consts  --      1.5485                 1.4653                 1.5463
 IR Inten    --      2.6009                12.3825                33.0592

                     40                     41                     42
                      A                      A                      A
 Frequencies --   1422.9913              1484.2189              1488.4390
 Red. masses --      1.3212                 1.1425                 1.0749
 Frc consts  --      1.5762                 1.4829                 1.4030
 IR Inten    --      9.1609                 4.4615                 5.2794

                     43                     44                     45
                      A                      A                      A
 Frequencies --   1494.4148              1498.7568              1500.4440
 Red. masses --      1.0715                 1.0587                 1.0546
 Frc consts  --      1.4099                 1.4012                 1.3989
 IR Inten    --      6.8622                 3.1668                 5.8820

                     46                     47                     48
                      A                      A                      A
 Frequencies --   1501.4425              1504.2785              1509.6148
 Red. masses --      1.0663                 1.1537                 1.1885
 Frc consts  --      1.4162                 1.5382                 1.5959
 IR Inten    --      3.8850                15.0825                17.0925

                     49                     50                     51
                      A                      A                      A
 Frequencies --   1521.6085              1533.0403              2937.7205
 Red. masses --      1.1010                 1.0938                 1.0738
 Frc consts  --      1.5019                 1.5145                 5.4600
 IR Inten    --      3.4425                 3.7376               120.4399

                     52                     53                     54
                      A                      A                      A
 Frequencies --   2945.2927              2952.5399              3028.7587
 Red. masses --      1.0723                 1.0724                 1.0674
 Frc consts  --      5.4806                 5.5079                 5.7693
 IR Inten    --    133.9519               140.8049                58.1516

                     55                     56                     57
                      A                      A                      A
 Frequencies --   3039.8204              3041.6992              3059.5859
 Red. masses --      1.0373                 1.0362                 1.0857
 Frc consts  --      5.6473                 5.6484                 5.9882
 IR Inten    --     33.6201                28.0913                52.8143

                     58                     59                     60
                      A                      A                      A
 Frequencies --   3063.2014              3074.0981              3087.0334
 Red. masses --      1.0892                 1.0887                 1.0972
 Frc consts  --      6.0214                 6.0619                 6.1606
 IR Inten    --     41.4565                35.7379                86.2822

                     61                     62                     63
                      A                      A                      A
 Frequencies --   3107.5621              3110.2026              3117.4549
 Red. masses --      1.1010                 1.1015                 1.1034
 Frc consts  --      6.2641                 6.2780                 6.3178
 IR Inten    --     69.7454                69.3856                64.6086

                     64                     65                     66
                      A                      A                      A
 Frequencies --   3122.8026              3491.4093              3516.3117
 Red. masses --      1.1030                 1.0733                 1.0748
 Frc consts  --      6.3376                 7.7084                 7.8299
 IR Inten    --     49.4068                11.4162                 0.1572

 - Thermochemistry -
 -------------------
 Temperature   298.150 Kelvin.  Pressure   1.00000 Atm.
 Atom     1 has atomic number  6 and mass  12.00000

 Molecular mass:   116.13135 amu.
 Principal axes and moments of inertia in atomic units:
                           1         2         3
     Eigenvalues --   337.782652441.076702521.95637
           X            0.99998   0.00538   0.00411
           Y           -0.00519   0.99897  -0.04517
           Z           -0.00435   0.04515   0.99897
 This molecule is an asymmetric top.
 Rotational symmetry number  1.
 Rotational temperatures (Kelvin)      0.25642     0.03548     0.03434
 Rotational constants (GHZ):           5.34291     0.73932     0.71561
 Zero-point vibrational energy     588754.4 (Joules/Mol)
                                  140.71569 (Kcal/Mol)
 Warning -- explicit consideration of  13 degrees of freedom as
           vibrations may cause significant error
 Vibrational temperatures:     61.89    77.73   111.26   144.51   247.01
          (Kelvin)            304.98   353.46   381.76   433.36   552.84
                              636.02   656.36   782.30  1093.26  1111.12
                             1161.54  1174.96  1214.22  1275.92  1313.04
                             1348.10  1482.98  1506.39  1526.02  1583.24
                             1617.15  1638.16  1668.89  1690.45  1740.22
                             1840.45  1859.17  1872.16  1915.59  1982.86
                             2002.85  2018.25  2021.04  2038.37  2047.37
                             2135.46  2141.53  2150.13  2156.38  2158.80
                             2160.24  2164.32  2172.00  2189.26  2205.70
                             4226.72  4237.62  4248.05  4357.71  4373.62
                             4376.33  4402.06  4407.26  4422.94  4441.55
                             4471.09  4474.89  4485.32  4493.02  5023.36
                             5059.19

 Zero-point correction=                           0.224245 (Hartree/Particle)
 Thermal correction to Energy=                    0.234742
 Thermal correction to Enthalpy=                  0.235686
 Thermal correction to Gibbs Free Energy=         0.187602
 Sum of electronic and zero-point Energies=           -347.564818
 Sum of electronic and thermal Energies=              -347.554321
 Sum of electronic and thermal Enthalpies=            -347.553377
 Sum of electronic and thermal Free Energies=         -347.601461

                     E (Thermal)             CV                S
                      KCal/Mol        Cal/Mol-Kelvin    Cal/Mol-Kelvin
 Total                  147.303             37.198            101.202
 Electronic               0.000              0.000              0.000
 Translational            0.889              2.981             40.164
 Rotational               0.889              2.981             29.121
 Vibrational            145.525             31.237             31.918
 Vibration     1          0.595              1.980              5.115
 Vibration     2          0.596              1.976              4.664
 Vibration     3          0.599              1.964              3.958
 Vibration     4          0.604              1.949              3.446
 Vibration     5          0.626              1.877              2.417
 Vibration     6          0.643              1.823              2.027
 Vibration     7          0.660              1.770              1.761
 Vibration     8          0.671              1.737              1.626
 Vibration     9          0.693              1.671              1.410
 Vibration    10          0.753              1.504              1.022
 Vibration    11          0.802              1.378              0.820
 Vibration    12          0.814              1.347              0.777
 Vibration    13          0.899              1.153              0.557

 Optimization completed.
    -- Stationary point found.
 Normal termination of Gaussian 16 at Wed Jul 17 14:44:58 2024.
 Gaussian 16:  ES64L-G16RevA.03 25-Dec-2016

 ----------------------------------------------------------------------
 # TD(NStates=10, Root=1) B3LYP/6-31G** SCRF=(Solvent=water) volume pop
 =NPA density=current Geom=AllCheck Guess=Read
 ----------------------------------------------------------------------

 Structure from the checkpoint file:  "CJKRXEBLWJVYJD-UHFFFAOYSA-N_conf_0_2.chk"
 ----------------------------------
 CJKRXEBLWJVYJD-UHFFFAOYSA-N_conf_0
 ----------------------------------
 Charge =  0 Multiplicity = 1

                         Standard orientation:
 ---------------------------------------------------------------------
 Center     Atomic      Atomic             Coordinates (Angstroms)
 Number     Number       Type             X           Y           Z
 ---------------------------------------------------------------------
      1          6           0        3.689582   -0.106714   -0.103205
      2          6           0        2.372955   -0.641246    0.463976
      3          7           0        1.280499   -0.580751   -0.519287
      4          6           0        0.632145    0.731166   -0.637364
      5          6           0       -0.348701    1.059566    0.502586
      6          7           0       -1.405494    0.045107    0.603378
      7          6           0       -2.535916    0.261764   -0.305059
      8          6           0       -3.607122   -0.808273   -0.112114
      9          1           0        3.980834   -0.669582   -0.995707
     10          1           0        4.490946   -0.192178    0.638473
     11          1           0        3.611568    0.949379   -0.382443
     12          1           0        2.505524   -1.694269    0.737543
     13          1           0        2.141218   -0.107520    1.402790
     14          1           0        0.546961   -1.224911   -0.226041
     15          1           0        1.397669    1.513184   -0.690124
     16          1           0        0.095468    0.765303   -1.594672
     17          1           0        0.194275    1.072287    1.453906
     18          1           0       -0.752393    2.077676    0.353318
     19          1           0       -1.761682    0.036490    1.556081
     20          1           0       -2.164177    0.222632   -1.335772
     21          1           0       -2.983133    1.264974   -0.176278
     22          1           0       -3.194506   -1.807048   -0.285438
     23          1           0       -4.010778   -0.781742    0.906849
     24          1           0       -4.440479   -0.652743   -0.804037
 ---------------------------------------------------------------------

 SCF Done:  E(RB3LYP) =  -347.789062960     A.U. after    1 cycles

 Excitation energies and oscillator strengths:

 Excited State   1:      Singlet-A      6.9427 eV  178.58 nm  f=0.0188  <S**2>=0.000
      33 -> 34         0.68922
 This state for optimization and/or second-order correction.
 Total Energy, E(TD-HF/TD-DFT) =  -347.533924632
 Copying the excited state density for this state as the 1-particle RhoCI density.

 Excited State   2:      Singlet-A      7.2439 eV  171.16 nm  f=0.0162  <S**2>=0.000
      32 -> 34         0.66142
      33 -> 35         0.16002

 Excited State   3:      Singlet-A      7.7183 eV  160.64 nm  f=0.0116  <S**2>=0.000
      33 -> 36         0.62550
      33 -> 37        -0.26178

 Excited State   4:      Singlet-A      7.8500 eV  157.94 nm  f=0.0103  <S**2>=0.000
      32 -> 34        -0.15140
      32 -> 36        -0.14166
      33 -> 35         0.54619
      33 -> 36         0.19680
      33 -> 37         0.31929

 Excited State   5:      Singlet-A      7.9864 eV  155.24 nm  f=0.0139  <S**2>=0.000
      32 -> 36        -0.40890
      33 -> 35        -0.36012
      33 -> 36         0.11711
      33 -> 37         0.40897

 Excited State   6:      Singlet-A      8.0914 eV  153.23 nm  f=0.0393  <S**2>=0.000
      32 -> 34         0.10837
      32 -> 35         0.41888
      32 -> 36         0.42014
      33 -> 36         0.16786
      33 -> 37         0.26315
      33 -> 38        -0.12556

 Excited State   7:      Singlet-A      8.1946 eV  151.30 nm  f=0.0423  <S**2>=0.000
      32 -> 35         0.50723
      32 -> 36        -0.34050
      33 -> 35         0.15686
      33 -> 37        -0.25030
      33 -> 38        -0.12147

 Excited State   8:      Singlet-A      8.4471 eV  146.78 nm  f=0.1334  <S**2>=0.000
      32 -> 35         0.14383
      32 -> 37        -0.42734
      32 -> 39         0.10876
      33 -> 37         0.11665
      33 -> 38         0.49072
      33 -> 40        -0.12251

 Excited State   9:      Singlet-A      8.5079 eV  145.73 nm  f=0.0640  <S**2>=0.000
      32 -> 37         0.50277
      33 -> 38         0.44091
      33 -> 39         0.13514

 Excited State  10:      Singlet-A      8.7869 eV  141.10 nm  f=0.0481  <S**2>=0.000
      32 -> 37        -0.14404
      32 -> 38         0.51138
      32 -> 39        -0.14948
      33 -> 39         0.40015
      33 -> 40        -0.11883

 The electronic state is 1-A.
 Alpha  occ. eigenvalues --  -14.31593 -14.30587 -10.20336 -10.20033 -10.19990
 Alpha  occ. eigenvalues --  -10.19719 -10.17309 -10.16848  -0.90554  -0.87939
 Alpha  occ. eigenvalues --   -0.75330  -0.73038  -0.68719  -0.62126  -0.59795
 Alpha  occ. eigenvalues --   -0.56428  -0.49783  -0.46579  -0.46264  -0.44858
 Alpha  occ. eigenvalues --   -0.43518  -0.41163  -0.40330  -0.38380  -0.36834
 Alpha  occ. eigenvalues --   -0.35987  -0.35495  -0.34833  -0.34374  -0.32648
 Alpha  occ. eigenvalues --   -0.32358  -0.22707  -0.21292
 Alpha virt. eigenvalues --    0.08040   0.10692   0.10989   0.12065   0.13033
 Alpha virt. eigenvalues --    0.14671   0.15248   0.16455   0.16555   0.17933
 Alpha virt. eigenvalues --    0.18121   0.18242   0.19090   0.20169   0.21681

 Mulliken charges:
               1
     1  C   -0.292361
     2  C   -0.022672
     3  N   -0.279437
     4  C   -0.042027
     5  C   -0.010358
     6  N   -0.389386
     7  C   -0.012008
     8  C   -0.329540
     9  H    0.106712
    10  H    0.084522
    11  H    0.076651
    12  H    0.059532
    13  H    0.068432
    14  H    0.215974
    15  H    0.068235
    16  H    0.096376
    17  H   -0.001826
    18  H    0.100311
    19  H    0.099844
    20  H    0.054707
    21  H    0.061225
    22  H    0.097363
    23  H    0.091902
    24  H    0.097831
 Sum of Mulliken charges =  -0.00000

 Dipole moment (field-independent basis, Debye):
    X=              0.7117    Y=              0.1212    Z=             -0.6767  Tot=              0.9895
 Quadrupole moment (field-independent basis, Debye-Ang):
   XX=            -57.7859   YY=            -54.5141   ZZ=            -56.1309
   XY=             -1.7451   XZ=              0.5384   YZ=             -0.3658

 Summary of Natural Population Analysis:

                                       Natural Population
                Natural  -----------------------------------------------
    Atom  No    Charge         Core      Valence    Rydberg      Total
 -----------------------------------------------------------------------
      C    1   -0.70448      1.99945     4.69536    0.00967     6.70448
      C    2   -0.31564      1.99933     4.30007    0.01625     6.31564
      N    3   -0.33194      1.99940     5.32138    0.01116     7.33194
      C    4   -0.32286      1.99930     4.30328    0.02029     6.32286
      C    5   -0.29553      1.99929     4.27819    0.01804     6.29553
      N    6   -0.60832      1.99949     5.59266    0.01616     7.60832
      C    7   -0.29357      1.99938     4.27591    0.01829     6.29357
      C    8   -0.70661      1.99946     4.69722    0.00993     6.70661
      H    9    0.23315      0.00000     0.76184    0.00502     0.76685
      H   10    0.21900      0.00000     0.77124    0.00976     0.78100
      H   11    0.20715      0.00000     0.77698    0.01587     0.79285
      H   12    0.19932      0.00000     0.77693    0.02375     0.80068
      H   13    0.20127      0.00000     0.76567    0.03307     0.79873
      H   14    0.35983      0.00000     0.60415    0.03602     0.64017
      H   15    0.19622      0.00000     0.77802    0.02576     0.80378
      H   16    0.23326      0.00000     0.74761    0.01913     0.76674
      H   17    0.15441      0.00000     0.80211    0.04349     0.84559
      H   18    0.23089      0.00000     0.75337    0.01574     0.76911
      H   19    0.27602      0.00000     0.67032    0.05366     0.72398
      H   20    0.19208      0.00000     0.78585    0.02207     0.80792
      H   21    0.19936      0.00000     0.78520    0.01545     0.80064
      H   22    0.22547      0.00000     0.76861    0.00592     0.77453
      H   23    0.22022      0.00000     0.77222    0.00755     0.77978
      H   24    0.23133      0.00000     0.76509    0.00358     0.76867
 =======================================================================
   * Total *   -0.00000     15.99510    49.54927    0.45564    66.00000

 Normal termination of Gaussian 16 at Wed Jul 17 14:51:57 2024.
