 Gaussian 16, Revision A.03,

 -------------------------------------------------------
 # opt=CalcFc B3LYP/6-31G** SCRF=(Solvent=water) scf=xqc
 -------------------------------------------------------

 ----------------------------------
 CJKRXEBLWJVYJD-UHFFFAOYSA-N_conf_3
 ----------------------------------
 Symbolic Z-matrix:
 Charge =  0 Multiplicity = 1

 SCF Done:  E(RB3LYP) =  -347.785194077     A.U. after   11 cycles
 SCF Done:  E(RB3LYP) =  -347.788101856     A.U. after    9 cycles
 SCF Done:  E(RB3LYP) =  -347.788232453     A.U. after    9 cycles
 SCF Done:  E(RB3LYP) =  -347.788250346     A.U. after    9 cycles
 SCF Done:  E(RB3LYP) =  -347.788259444     A.U. after    8 cycles
 SCF Done:  E(RB3LYP) =  -347.788259582     A.U. after    6 cycles
 Optimization completed.
    -- Stationary point found.
 Normal termination of Gaussian 16 at Wed Jul 17 14:37:12 2024.

 ----------------------------------------------------------------------
 # freq B3LYP/6-31G** SCRF=(Solvent=water) volume NMR pop=NPA density=c
 urrent Geom=AllCheck Guess=Read
 ----------------------------------------------------------------------

 Structure from the checkpoint file:  "CJKRXEBLWJVYJD-UHFFFAOYSA-N_conf_3_1.chk"
 ----------------------------------
 CJKRXEBLWJVYJD-UHFFFAOYSA-N_conf_3
 ----------------------------------
 Charge =  0 Multiplicity = 1

 SCF Done:  E(RB3LYP) =  -347.788259582     A.U. after    1 cycles

      1  C    Isotropic =   176.9898   Anisotropy =    21.5526

      2  C    Isotropic =   146.1924   Anisotropy =    43.6527

      3  N    Isotropic =   215.0639   Anisotropy =    47.6192

      4  C    Isotropic =   142.2397   Anisotropy =    43.1215

      5  C    Isotropic =   141.1047   Anisotropy =    45.7982

      6  N    Isotropic =   214.4589   Anisotropy =    46.6041

      7  C    Isotropic =   146.0083   Anisotropy =    45.0017

      8  C    Isotropic =   176.7866   Anisotropy =    22.0892

      9  H    Isotropic =    30.1421   Anisotropy =     6.5206

     10  H    Isotropic =    30.9333   Anisotropy =     9.9252

     11  H    Isotropic =    31.1392   Anisotropy =     8.0886

     12  H    Isotropic =    29.1667   Anisotropy =     6.9500

     13  H    Isotropic =    28.8370   Anisotropy =     8.7464

     14  H    Isotropic =    31.7055   Anisotropy =    10.8243

     15  H    Isotropic =    28.7045   Anisotropy =     5.0876

     16  H    Isotropic =    29.5342   Anisotropy =     4.4854

     17  H    Isotropic =    29.5467   Anisotropy =     5.4336

     18  H    Isotropic =    28.9450   Anisotropy =     3.9185

     19  H    Isotropic =    31.1220   Anisotropy =    12.2316

     20  H    Isotropic =    29.0734   Anisotropy =     7.2935

     21  H    Isotropic =    28.9501   Anisotropy =     8.3808

     22  H    Isotropic =    30.8706   Anisotropy =    10.0774

     23  H    Isotropic =    30.4399   Anisotropy =     6.5362

     24  H    Isotropic =    30.9246   Anisotropy =     8.5024

  Exact polarizability: 116.758  -2.106  93.657  -0.595  -0.710  93.981
 Approx polarizability: 111.648  -2.571 102.372  -0.465  -2.072 104.260

                      1                      2                      3
                      A                      A                      A
 Frequencies --     41.0280                64.5046                99.5727
 Red. masses --      2.8535                 2.5817                 1.8678
 Frc consts  --      0.0028                 0.0063                 0.0109
 IR Inten    --      0.2441                 0.1219                 2.3914

                      4                      5                      6
                      A                      A                      A
 Frequencies --    110.8961               127.0943               170.8872
 Red. masses --      2.4802                 2.3293                 1.6635
 Frc consts  --      0.0180                 0.0222                 0.0286
 IR Inten    --      0.7165                 2.7220                 2.8483

                      7                      8                      9
                      A                      A                      A
 Frequencies --    215.9036               267.0925               300.9381
 Red. masses --      1.3371                 1.3623                 1.9179
 Frc consts  --      0.0367                 0.0573                 0.1023
 IR Inten    --      0.2295                 0.8745                 5.5307

                     10                     11                     12
                      A                      A                      A
 Frequencies --    370.7636               380.1480               459.3757
 Red. masses --      2.8747                 2.5680                 2.5227
 Frc consts  --      0.2328                 0.2187                 0.3137
 IR Inten    --      0.3055                 3.8001                13.1171

                     13                     14                     15
                      A                      A                      A
 Frequencies --    523.1641               764.8185               791.4733
 Red. masses --      2.4421                 1.2254                 1.3621
 Frc consts  --      0.3938                 0.4223                 0.5027
 IR Inten    --     13.6341               121.5221               126.2717

                     16                     17                     18
                      A                      A                      A
 Frequencies --    801.9042               809.9243               840.5359
 Red. masses --      1.2030                 1.1403                 1.3256
 Frc consts  --      0.4558                 0.4407                 0.5518
 IR Inten    --     18.6022                31.8286                 8.3170

                     19                     20                     21
                      A                      A                      A
 Frequencies --    887.5995               901.3268              1004.6940
 Red. masses --      1.8905                 2.1277                 2.3892
 Frc consts  --      0.8775                 1.0184                 1.4209
 IR Inten    --      9.6768                 6.0201                 6.0929

                     22                     23                     24
                      A                      A                      A
 Frequencies --   1036.2747              1047.4227              1069.0401
 Red. masses --      1.8517                 2.7919                 1.6351
 Frc consts  --      1.1716                 1.8047                 1.1010
 IR Inten    --      3.0003                 1.3350                23.1608

                     25                     26                     27
                      A                      A                      A
 Frequencies --   1089.5144              1126.1835              1150.9117
 Red. masses --      1.9982                 1.7841                 2.7402
 Frc consts  --      1.3975                 1.3332                 2.1386
 IR Inten    --     17.6444                27.4834                20.2005

                     28                     29                     30
                      A                      A                      A
 Frequencies --   1172.6629              1192.1074              1200.7109
 Red. masses --      3.0103                 1.6596                 1.9380
 Frc consts  --      2.4390                 1.3896                 1.6462
 IR Inten    --     99.6361                 9.5803                30.0420

                     31                     32                     33
                      A                      A                      A
 Frequencies --   1251.6849              1300.1539              1319.0231
 Red. masses --      1.4100                 1.1966                 1.1121
 Frc consts  --      1.3016                 1.1918                 1.1400
 IR Inten    --      8.2793                 0.4085                18.7338

                     34                     35                     36
                      A                      A                      A
 Frequencies --   1338.3774              1360.2101              1389.3112
 Red. masses --      1.1407                 1.2293                 1.2640
 Frc consts  --      1.2039                 1.3400                 1.4375
 IR Inten    --      1.7711                 7.7370                23.9515

                     37                     38                     39
                      A                      A                      A
 Frequencies --   1399.3070              1413.1264              1417.3213
 Red. masses --      1.3011                 1.2663                 1.3031
 Frc consts  --      1.5010                 1.4898                 1.5423
 IR Inten    --     20.4387                10.7476                33.1234

                     40                     41                     42
                      A                      A                      A
 Frequencies --   1431.6319              1481.4837              1493.0746
 Red. masses --      1.4377                 1.0637                 1.0880
 Frc consts  --      1.7361                 1.3755                 1.4290
 IR Inten    --      0.9727                 8.3063                12.3694

                     43                     44                     45
                      A                      A                      A
 Frequencies --   1493.9232              1497.3910              1501.5908
 Red. masses --      1.0683                 1.1135                 1.1608
 Frc consts  --      1.4048                 1.4709                 1.5422
 IR Inten    --      1.5418                16.1815                 6.7447

                     46                     47                     48
                      A                      A                      A
 Frequencies --   1504.1293              1512.1416              1517.2125
 Red. masses --      1.1147                 1.0977                 1.0961
 Frc consts  --      1.4859                 1.4789                 1.4866
 IR Inten    --      7.5927                 9.4913                 2.5782

                     49                     50                     51
                      A                      A                      A
 Frequencies --   1520.6078              1533.9077              2912.8661
 Red. masses --      1.0900                 1.0917                 1.0735
 Frc consts  --      1.4850                 1.5134                 5.3665
 IR Inten    --      2.3067                 7.3867               146.9705

                     52                     53                     54
                      A                      A                      A
 Frequencies --   2935.4839              2939.2900              3028.5309
 Red. masses --      1.0729                 1.0716                 1.0598
 Frc consts  --      5.4471                 5.4545                 5.7271
 IR Inten    --    144.1469               116.1714                70.1152

                     55                     56                     57
                      A                      A                      A
 Frequencies --   3036.6710              3044.4723              3055.7346
 Red. masses --      1.0367                 1.0359                 1.0862
 Frc consts  --      5.6326                 5.6572                 5.9755
 IR Inten    --     28.3004                25.1006                43.3568

                     58                     59                     60
                      A                      A                      A
 Frequencies --   3065.2358              3065.7602              3078.4019
 Red. masses --      1.0892                 1.1039                 1.0879
 Frc consts  --      6.0296                 6.1132                 6.0744
 IR Inten    --     52.6204                36.7009                75.7541

                     61                     62                     63
                      A                      A                      A
 Frequencies --   3104.0743              3115.6173              3115.9635
 Red. masses --      1.1023                 1.1017                 1.1024
 Frc consts  --      6.2578                 6.3010                 6.3064
 IR Inten    --     66.7630                66.6900                68.2764

                     64                     65                     66
                      A                      A                      A
 Frequencies --   3118.6533              3493.0513              3501.8089
 Red. masses --      1.1033                 1.0737                 1.0742
 Frc consts  --      6.3223                 7.7185                 7.7610
 IR Inten    --     64.0434                 1.1665                 0.7353

 - Thermochemistry -
 -------------------
 Temperature   298.150 Kelvin.  Pressure   1.00000 Atm.
 Atom     1 has atomic number  6 and mass  12.00000

 Molecular mass:   116.13135 amu.
 Principal axes and moments of inertia in atomic units:
                           1         2         3
     Eigenvalues --   267.554962932.905013055.00013
           X            0.99995   0.00956  -0.00211
           Y           -0.00950   0.99953   0.02907
           Z            0.00239  -0.02905   0.99958
 This molecule is an asymmetric top.
 Rotational symmetry number  1.
 Rotational temperatures (Kelvin)      0.32372     0.02953     0.02835
 Rotational constants (GHZ):           6.74531     0.61534     0.59075
 Zero-point vibrational energy     587998.7 (Joules/Mol)
                                  140.53505 (Kcal/Mol)
 Warning -- explicit consideration of  13 degrees of freedom as
           vibrations may cause significant error
 Vibrational temperatures:     59.03    92.81   143.26   159.55   182.86
          (Kelvin)            245.87   310.64   384.29   432.98   533.45
                              546.95   660.94   752.72  1100.40  1138.75
                             1153.76  1165.30  1209.34  1277.06  1296.81
                             1445.53  1490.97  1507.01  1538.11  1567.57
                             1620.33  1655.91  1687.20  1715.18  1727.56
                             1800.90  1870.63  1897.78  1925.63  1957.04
                             1998.91  2013.29  2033.17  2039.21  2059.80
                             2131.52  2148.20  2149.42  2154.41  2160.45
                             2164.11  2175.63  2182.93  2187.82  2206.95
                             4190.96  4223.51  4228.98  4357.38  4369.09
                             4380.32  4396.52  4410.19  4410.95  4429.13
                             4466.07  4482.68  4483.18  4487.05  5025.72
                             5038.32

 Zero-point correction=                           0.223957 (Hartree/Particle)
 Thermal correction to Energy=                    0.234626
 Thermal correction to Enthalpy=                  0.235570
 Thermal correction to Gibbs Free Energy=         0.187173
 Sum of electronic and zero-point Energies=           -347.564303
 Sum of electronic and thermal Energies=              -347.553633
 Sum of electronic and thermal Enthalpies=            -347.552689
 Sum of electronic and thermal Free Energies=         -347.601086

                     E (Thermal)             CV                S
                      KCal/Mol        Cal/Mol-Kelvin    Cal/Mol-Kelvin
 Total                  147.230             37.406            101.860
 Electronic               0.000              0.000              0.000
 Translational            0.889              2.981             40.164
 Rotational               0.889              2.981             29.262
 Vibrational            145.453             31.444             32.434
 Vibration     1          0.594              1.981              5.209
 Vibration     2          0.597              1.971              4.314
 Vibration     3          0.604              1.949              3.463
 Vibration     4          0.607              1.940              3.253
 Vibration     5          0.611              1.926              2.990
 Vibration     6          0.626              1.878              2.426
 Vibration     7          0.645              1.817              1.993
 Vibration     8          0.672              1.734              1.615
 Vibration     9          0.693              1.672              1.412
 Vibration    10          0.743              1.532              1.077
 Vibration    11          0.750              1.512              1.039
 Vibration    12          0.817              1.340              0.768
 Vibration    13          0.878              1.199              0.603

 Optimization completed.
    -- Stationary point found.
 Normal termination of Gaussian 16 at Wed Jul 17 14:42:20 2024.
 Gaussian 16:  ES64L-G16RevA.03 25-Dec-2016

 ----------------------------------------------------------------------
 # TD(NStates=10, Root=1) B3LYP/6-31G** SCRF=(Solvent=water) volume pop
 =NPA density=current Geom=AllCheck Guess=Read
 ----------------------------------------------------------------------

 Structure from the checkpoint file:  "CJKRXEBLWJVYJD-UHFFFAOYSA-N_conf_3_2.chk"
 ----------------------------------
 CJKRXEBLWJVYJD-UHFFFAOYSA-N_conf_3
 ----------------------------------
 Charge =  0 Multiplicity = 1

                         Standard orientation:
 ---------------------------------------------------------------------
 Center     Atomic      Atomic             Coordinates (Angstroms)
 Number     Number       Type             X           Y           Z
 ---------------------------------------------------------------------
      1          6           0        3.755149    0.692397   -0.061221
      2          6           0        3.030020   -0.653192   -0.211825
      3          7           0        1.687581   -0.745958    0.372553
      4          6           0        0.691812    0.144101   -0.224979
      5          6           0       -0.698978   -0.151589    0.337894
      6          7           0       -1.699627    0.735709   -0.256853
      7          6           0       -3.056416    0.545071    0.273297
      8          6           0       -3.747517   -0.687950   -0.311470
      9          1           0        3.219748    1.503931   -0.563859
     10          1           0        4.759367    0.638010   -0.495845
     11          1           0        3.861890    0.961753    0.996064
     12          1           0        2.945193   -0.906397   -1.276632
     13          1           0        3.640638   -1.441021    0.246233
     14          1           0        1.751417   -0.545476    1.369667
     15          1           0        0.913220    1.217926   -0.083263
     16          1           0        0.682289   -0.029634   -1.308187
     17          1           0       -0.670631   -0.074449    1.443026
     18          1           0       -0.955458   -1.191107    0.107522
     19          1           0       -1.420102    1.695153   -0.062115
     20          1           0       -3.064719    0.477597    1.377262
     21          1           0       -3.637298    1.436279    0.010312
     22          1           0       -4.772584   -0.764459    0.065653
     23          1           0       -3.228411   -1.613230   -0.042129
     24          1           0       -3.784657   -0.626153   -1.403776
 ---------------------------------------------------------------------

 SCF Done:  E(RB3LYP) =  -347.788259582     A.U. after    1 cycles

 Excitation energies and oscillator strengths:

 Excited State   1:      Singlet-A      7.1192 eV  174.16 nm  f=0.0118  <S**2>=0.000
      32 -> 34        -0.14230
      32 -> 35         0.19800
      33 -> 34         0.61128
      33 -> 35        -0.23423
 This state for optimization and/or second-order correction.
 Total Energy, E(TD-HF/TD-DFT) =  -347.526634465
 Copying the excited state density for this state as the 1-particle RhoCI density.

 Excited State   2:      Singlet-A      7.2160 eV  171.82 nm  f=0.0180  <S**2>=0.000
      32 -> 34         0.42583
      32 -> 35         0.31900
      33 -> 34         0.15761
      33 -> 35         0.41736

 Excited State   3:      Singlet-A      7.6471 eV  162.13 nm  f=0.0345  <S**2>=0.000
      32 -> 34        -0.34873
      32 -> 35        -0.27584
      33 -> 34         0.20512
      33 -> 35         0.49257

 Excited State   4:      Singlet-A      7.7199 eV  160.60 nm  f=0.0202  <S**2>=0.000
      32 -> 34        -0.39745
      32 -> 35         0.51107
      33 -> 34        -0.22208
      33 -> 35         0.10483

 Excited State   5:      Singlet-A      7.9490 eV  155.98 nm  f=0.0089  <S**2>=0.000
      32 -> 36         0.37091
      33 -> 36         0.56100
      33 -> 37         0.12595

 Excited State   6:      Singlet-A      8.0293 eV  154.41 nm  f=0.0377  <S**2>=0.000
      32 -> 36        -0.26759
      32 -> 37        -0.20765
      33 -> 37         0.60148

 Excited State   7:      Singlet-A      8.1899 eV  151.39 nm  f=0.0281  <S**2>=0.000
      32 -> 36         0.50147
      33 -> 36        -0.38132
      33 -> 37         0.20162
      33 -> 38        -0.11554
      33 -> 39         0.14951

 Excited State   8:      Singlet-A      8.4816 eV  146.18 nm  f=0.1423  <S**2>=0.000
      32 -> 37         0.58794
      32 -> 39         0.15216
      33 -> 37         0.23370
      33 -> 38         0.19310
      33 -> 39         0.10518

 Excited State   9:      Singlet-A      8.6139 eV  143.94 nm  f=0.0379  <S**2>=0.000
      32 -> 37        -0.22458
      32 -> 39         0.11092
      32 -> 40         0.10658
      33 -> 38         0.60178
      33 -> 39        -0.12247
      33 -> 40        -0.10346

 Excited State  10:      Singlet-A      8.6958 eV  142.58 nm  f=0.0028  <S**2>=0.000
      32 -> 36        -0.11635
      32 -> 37        -0.12495
      32 -> 38         0.48408
      33 -> 39         0.41362
      33 -> 40         0.15315
      33 -> 41        -0.11698

 The electronic state is 1-A.
 Alpha  occ. eigenvalues --  -14.31345 -14.31334 -10.20317 -10.20312 -10.20127
 Alpha  occ. eigenvalues --  -10.19993 -10.17002 -10.16972  -0.90433  -0.88663
 Alpha  occ. eigenvalues --   -0.75548  -0.72863  -0.68797  -0.61837  -0.59170
 Alpha  occ. eigenvalues --   -0.58227  -0.49739  -0.46585  -0.46056  -0.44556
 Alpha  occ. eigenvalues --   -0.43392  -0.41748  -0.39557  -0.39199  -0.37423
 Alpha  occ. eigenvalues --   -0.36333  -0.35783  -0.34713  -0.33627  -0.33314
 Alpha  occ. eigenvalues --   -0.32153  -0.22393  -0.21677
 Alpha virt. eigenvalues --    0.08792   0.09136   0.11159   0.12147   0.13288
 Alpha virt. eigenvalues --    0.14065   0.14910   0.15821   0.17024   0.17600
 Alpha virt. eigenvalues --    0.17786   0.18796   0.19093   0.19217   0.21473

 Mulliken charges:
               1
     1  C   -0.257212
     2  C   -0.038001
     3  N   -0.152782
     4  C   -0.032053
     5  C   -0.027536
     6  N   -0.503707
     7  C   -0.042223
     8  C   -0.317758
     9  H    0.073832
    10  H    0.071403
    11  H    0.057132
    12  H    0.101166
    13  H    0.067142
    14  H   -0.024421
    15  H    0.037071
    16  H    0.101885
    17  H    0.039716
    18  H    0.105846
    19  H    0.224531
    20  H    0.087506
    21  H    0.101456
    22  H    0.105812
    23  H    0.111735
    24  H    0.109460
 Sum of Mulliken charges =  -0.00000

 Dipole moment (field-independent basis, Debye):
    X=             -0.7733    Y=             -0.3739    Z=             -0.3547  Tot=              0.9293
 Quadrupole moment (field-independent basis, Debye-Ang):
   XX=            -54.2235   YY=            -53.2815   ZZ=            -58.4847
   XY=             -2.7142   XZ=             -4.3981   YZ=              0.6642

 Summary of Natural Population Analysis:

                                       Natural Population
                Natural  -----------------------------------------------
    Atom  No    Charge         Core      Valence    Rydberg      Total
 -----------------------------------------------------------------------
      C    1   -0.69788      1.99940     4.68783    0.01065     6.69788
      C    2   -0.33335      1.99938     4.31639    0.01758     6.33335
      N    3   -0.23531      1.99936     5.22002    0.01593     7.23531
      C    4   -0.34882      1.99930     4.32627    0.02325     6.34882
      C    5   -0.29081      1.99933     4.27112    0.02036     6.29081
      N    6   -0.67567      1.99953     5.66093    0.01520     7.67567
      C    7   -0.26852      1.99938     4.25450    0.01464     6.26852
      C    8   -0.70041      1.99946     4.69343    0.00752     6.70041
      H    9    0.20613      0.00000     0.77514    0.01872     0.79387
      H   10    0.20825      0.00000     0.77499    0.01676     0.79175
      H   11    0.19919      0.00000     0.77442    0.02638     0.80081
      H   12    0.22602      0.00000     0.75520    0.01878     0.77398
      H   13    0.21100      0.00000     0.76265    0.02635     0.78900
      H   14    0.17091      0.00000     0.72943    0.09967     0.82909
      H   15    0.18382      0.00000     0.76971    0.04647     0.81618
      H   16    0.23193      0.00000     0.74978    0.01830     0.76807
      H   17    0.17499      0.00000     0.80236    0.02265     0.82501
      H   18    0.22678      0.00000     0.76552    0.00770     0.77322
      H   19    0.36718      0.00000     0.61700    0.01582     0.63282
      H   20    0.20833      0.00000     0.78761    0.00406     0.79167
      H   21    0.23472      0.00000     0.76186    0.00342     0.76528
      H   22    0.23785      0.00000     0.76019    0.00196     0.76215
      H   23    0.23045      0.00000     0.76807    0.00148     0.76955
      H   24    0.23321      0.00000     0.76467    0.00212     0.76679
 =======================================================================
   * Total *   -0.00000     15.99514    49.54910    0.45577    66.00000

 Normal termination of Gaussian 16 at Wed Jul 17 14:48:39 2024.
