 Gaussian 16, Revision A.03,

 -------------------------------------------------------
 # opt=CalcFc B3LYP/6-31G** SCRF=(Solvent=water) scf=xqc
 -------------------------------------------------------

 ----------------------------------
 CJKRXEBLWJVYJD-UHFFFAOYSA-N_conf_2
 ----------------------------------
 Symbolic Z-matrix:
 Charge =  0 Multiplicity = 1

 SCF Done:  E(RB3LYP) =  -347.787592947     A.U. after   11 cycles
 SCF Done:  E(RB3LYP) =  -347.790571817     A.U. after    9 cycles
 SCF Done:  E(RB3LYP) =  -347.790816723     A.U. after    9 cycles
 SCF Done:  E(RB3LYP) =  -347.790836711     A.U. after    8 cycles
 SCF Done:  E(RB3LYP) =  -347.790841524     A.U. after    7 cycles
 SCF Done:  E(RB3LYP) =  -347.790841540     A.U. after    5 cycles
 Optimization completed.
    -- Stationary point found.
 Normal termination of Gaussian 16 at Wed Jul 17 14:37:16 2024.

 ----------------------------------------------------------------------
 # freq B3LYP/6-31G** SCRF=(Solvent=water) volume NMR pop=NPA density=c
 urrent Geom=AllCheck Guess=Read
 ----------------------------------------------------------------------

 Structure from the checkpoint file:  "CJKRXEBLWJVYJD-UHFFFAOYSA-N_conf_2_1.chk"
 ----------------------------------
 CJKRXEBLWJVYJD-UHFFFAOYSA-N_conf_2
 ----------------------------------
 Charge =  0 Multiplicity = 1

 SCF Done:  E(RB3LYP) =  -347.790841540     A.U. after    1 cycles

      1  C    Isotropic =   176.4975   Anisotropy =    22.4332

      2  C    Isotropic =   145.6898   Anisotropy =    44.9566

      3  N    Isotropic =   216.2331   Anisotropy =    41.6803

      4  C    Isotropic =   141.8080   Anisotropy =    33.7444

      5  C    Isotropic =   143.7321   Anisotropy =    29.2289

      6  N    Isotropic =   214.3827   Anisotropy =    64.1052

      7  C    Isotropic =   146.0990   Anisotropy =    44.0212

      8  C    Isotropic =   176.6751   Anisotropy =    21.9790

      9  H    Isotropic =    30.8680   Anisotropy =    10.0537

     10  H    Isotropic =    30.5197   Anisotropy =     6.7209

     11  H    Isotropic =    30.9507   Anisotropy =     8.5087

     12  H    Isotropic =    28.9438   Anisotropy =     8.1964

     13  H    Isotropic =    29.1493   Anisotropy =     7.1808

     14  H    Isotropic =    29.9030   Anisotropy =    13.8917

     15  H    Isotropic =    29.6278   Anisotropy =     6.4596

     16  H    Isotropic =    28.9789   Anisotropy =     6.0928

     17  H    Isotropic =    28.4224   Anisotropy =     6.7786

     18  H    Isotropic =    29.5814   Anisotropy =     5.9951

     19  H    Isotropic =    31.8845   Anisotropy =    10.9459

     20  H    Isotropic =    28.7823   Anisotropy =     8.5368

     21  H    Isotropic =    29.2094   Anisotropy =     6.8614

     22  H    Isotropic =    30.9109   Anisotropy =    10.0147

     23  H    Isotropic =    30.2033   Anisotropy =     6.6677

     24  H    Isotropic =    31.1075   Anisotropy =     8.1505

  Exact polarizability: 116.597  -0.384  96.720  -1.336   0.102  94.074
 Approx polarizability: 111.187  -0.734 104.820  -1.508   0.322 104.699

                      1                      2                      3
                      A                      A                      A
 Frequencies --     43.2606                66.3461                71.9962
 Red. masses --      3.1749                 3.0362                 2.3237
 Frc consts  --      0.0035                 0.0079                 0.0071
 IR Inten    --      0.2152                 1.4785                 0.6991

                      4                      5                      6
                      A                      A                      A
 Frequencies --    133.9322               166.8765               207.0048
 Red. masses --      2.1732                 2.8407                 1.3653
 Frc consts  --      0.0230                 0.0466                 0.0345
 IR Inten    --      2.6336                 1.1922                 1.2904

                      7                      8                      9
                      A                      A                      A
 Frequencies --    232.0349               267.8987               320.5565
 Red. masses --      1.2408                 1.6984                 1.7709
 Frc consts  --      0.0394                 0.0718                 0.1072
 IR Inten    --      0.3225                 1.5080                 8.5239

                     10                     11                     12
                      A                      A                      A
 Frequencies --    337.9084               408.5809               476.6323
 Red. masses --      1.8597                 2.7085                 2.5364
 Frc consts  --      0.1251                 0.2664                 0.3395
 IR Inten    --      1.4936                 2.5624                 7.7609

                     13                     14                     15
                      A                      A                      A
 Frequencies --    566.3855               760.4215               781.5552
 Red. masses --      2.3648                 1.3857                 1.2955
 Frc consts  --      0.4470                 0.4721                 0.4663
 IR Inten    --      1.8197               122.2941                20.7599

                     16                     17                     18
                      A                      A                      A
 Frequencies --    792.9582               826.9754               884.1003
 Red. masses --      1.3843                 1.3743                 1.3943
 Frc consts  --      0.5129                 0.5538                 0.6421
 IR Inten    --     44.3631                52.5293                46.3282

                     19                     20                     21
                      A                      A                      A
 Frequencies --    891.1095               932.2169               936.7894
 Red. masses --      1.6629                 2.0896                 1.8057
 Frc consts  --      0.7780                 1.0699                 0.9336
 IR Inten    --     15.5918                 2.9510                14.4883

                     22                     23                     24
                      A                      A                      A
 Frequencies --   1030.3056              1054.0955              1065.5162
 Red. masses --      2.4196                 1.6960                 1.6863
 Frc consts  --      1.5133                 1.1103                 1.1280
 IR Inten    --      5.6913                 9.3169                11.7285

                     25                     26                     27
                      A                      A                      A
 Frequencies --   1091.4216              1115.4546              1154.3114
 Red. masses --      2.0960                 1.7882                 2.2007
 Frc consts  --      1.4711                 1.3109                 1.7277
 IR Inten    --     31.4167                18.4637                57.0851

                     28                     29                     30
                      A                      A                      A
 Frequencies --   1166.4239              1191.0822              1197.8492
 Red. masses --      2.8425                 1.7965                 2.0528
 Frc consts  --      2.2786                 1.5016                 1.7354
 IR Inten    --     48.8494                25.0857                 8.8575

                     31                     32                     33
                      A                      A                      A
 Frequencies --   1257.6626              1283.2991              1322.3688
 Red. masses --      1.3587                 1.1985                 1.1484
 Frc consts  --      1.2662                 1.1629                 1.1832
 IR Inten    --     11.5064                25.4319                 9.3031

                     34                     35                     36
                      A                      A                      A
 Frequencies --   1343.2739              1380.6745              1393.6844
 Red. masses --      1.1809                 1.2614                 1.2821
 Frc consts  --      1.2554                 1.4167                 1.4673
 IR Inten    --      9.2188                41.3690                13.5158

                     37                     38                     39
                      A                      A                      A
 Frequencies --   1397.3589              1408.0148              1413.7686
 Red. masses --      1.2877                 1.3575                 1.2531
 Frc consts  --      1.4814                 1.5857                 1.4757
 IR Inten    --     21.7286                 5.4944                17.4851

                     40                     41                     42
                      A                      A                      A
 Frequencies --   1419.6651              1481.2674              1491.0843
 Red. masses --      1.3612                 1.0711                 1.1174
 Frc consts  --      1.6164                 1.3846                 1.4637
 IR Inten    --     31.6286                11.5692                10.6842

                     43                     44                     45
                      A                      A                      A
 Frequencies --   1493.1329              1496.0113              1499.8312
 Red. masses --      1.0556                 1.1699                 1.1158
 Frc consts  --      1.3866                 1.5427                 1.4789
 IR Inten    --      3.1828                20.3406                 7.6845

                     46                     47                     48
                      A                      A                      A
 Frequencies --   1502.5019              1507.7839              1516.1194
 Red. masses --      1.0983                 1.0805                 1.0908
 Frc consts  --      1.4609                 1.4473                 1.4773
 IR Inten    --     11.7261                 4.4844                17.2886

                     49                     50                     51
                      A                      A                      A
 Frequencies --   1518.5221              1529.6471              2904.3610
 Red. masses --      1.0943                 1.1050                 1.0737
 Frc consts  --      1.4867                 1.5233                 5.3364
 IR Inten    --     10.0882                 6.2587               132.9380

                     52                     53                     54
                      A                      A                      A
 Frequencies --   2922.6672              2976.1967              3030.9750
 Red. masses --      1.0730                 1.0694                 1.0597
 Frc consts  --      5.4001                 5.5810                 5.7357
 IR Inten    --    160.6473               110.2098                65.8518

                     55                     56                     57
                      A                      A                      A
 Frequencies --   3037.0213              3042.7536              3054.5475
 Red. masses --      1.0368                 1.0372                 1.0868
 Frc consts  --      5.6345                 5.6580                 5.9745
 IR Inten    --     29.8403                18.5473                82.3037

                     58                     59                     60
                      A                      A                      A
 Frequencies --   3059.0624              3061.3610              3068.4024
 Red. masses --      1.0898                 1.0876                 1.1041
 Frc consts  --      6.0088                 6.0056                 6.1249
 IR Inten    --     43.9049                66.3277                39.0765

                     61                     62                     63
                      A                      A                      A
 Frequencies --   3104.8378              3113.9021              3116.3109
 Red. masses --      1.1024                 1.1019                 1.1025
 Frc consts  --      6.2612                 6.2949                 6.3085
 IR Inten    --     66.6155                70.4057                71.2712

                     64                     65                     66
                      A                      A                      A
 Frequencies --   3116.9258              3491.2863              3496.6143
 Red. masses --      1.1032                 1.0737                 1.0736
 Frc consts  --      6.3149                 7.7111                 7.7336
 IR Inten    --     57.6461                 0.5112                21.1592

 - Thermochemistry -
 -------------------
 Temperature   298.150 Kelvin.  Pressure   1.00000 Atm.
 Atom     1 has atomic number  6 and mass  12.00000

 Molecular mass:   116.13135 amu.
 Principal axes and moments of inertia in atomic units:
                           1         2         3
     Eigenvalues --   250.596732715.520822834.89559
           X            1.00000   0.00066  -0.00196
           Y           -0.00068   0.99997  -0.00707
           Z            0.00195   0.00707   0.99997
 This molecule is an asymmetric top.
 Rotational symmetry number  1.
 Rotational temperatures (Kelvin)      0.34563     0.03190     0.03055
 Rotational constants (GHZ):           7.20177     0.66460     0.63662
 Zero-point vibrational energy     588711.6 (Joules/Mol)
                                  140.70546 (Kcal/Mol)
 Warning -- explicit consideration of  13 degrees of freedom as
           vibrations may cause significant error
 Vibrational temperatures:     62.24    95.46   103.59   192.70   240.10
          (Kelvin)            297.83   333.85   385.45   461.21   486.17
                              587.86   685.77   814.90  1094.08  1124.48
                             1140.89  1189.83  1272.02  1282.11  1341.25
                             1347.83  1482.38  1516.61  1533.04  1570.31
                             1604.89  1660.80  1678.22  1713.70  1723.44
                             1809.50  1846.38  1902.59  1932.67  1986.48
                             2005.20  2010.49  2025.82  2034.10  2042.58
                             2131.21  2145.34  2148.29  2152.43  2157.92
                             2161.77  2169.36  2181.36  2184.81  2200.82
                             4178.73  4205.07  4282.08  4360.90  4369.60
                             4377.84  4394.81  4401.31  4404.62  4414.75
                             4467.17  4480.21  4483.68  4484.56  5023.18
                             5030.85

 Zero-point correction=                           0.224228 (Hartree/Particle)
 Thermal correction to Energy=                    0.234689
 Thermal correction to Enthalpy=                  0.235633
 Thermal correction to Gibbs Free Energy=         0.187866
 Sum of electronic and zero-point Energies=           -347.566613
 Sum of electronic and thermal Energies=              -347.556153
 Sum of electronic and thermal Enthalpies=            -347.555209
 Sum of electronic and thermal Free Energies=         -347.602975

                     E (Thermal)             CV                S
                      KCal/Mol        Cal/Mol-Kelvin    Cal/Mol-Kelvin
 Total                  147.269             37.120            100.533
 Electronic               0.000              0.000              0.000
 Translational            0.889              2.981             40.164
 Rotational               0.889              2.981             29.046
 Vibrational            145.492             31.159             31.323
 Vibration     1          0.595              1.980              5.104
 Vibration     2          0.598              1.970              4.259
 Vibration     3          0.598              1.967              4.098
 Vibration     4          0.613              1.919              2.889
 Vibration     5          0.624              1.883              2.470
 Vibration     6          0.641              1.830              2.070
 Vibration     7          0.653              1.792              1.863
 Vibration     8          0.673              1.732              1.610
 Vibration     9          0.706              1.634              1.307
 Vibration    10          0.718              1.600              1.222
 Vibration    11          0.773              1.452              0.932
 Vibration    12          0.833              1.302              0.719
 Vibration    13          0.922              1.104              0.511

 Optimization completed.
    -- Stationary point found.
 Normal termination of Gaussian 16 at Wed Jul 17 14:42:28 2024.
 Gaussian 16:  ES64L-G16RevA.03 25-Dec-2016

 ----------------------------------------------------------------------
 # TD(NStates=10, Root=1) B3LYP/6-31G** SCRF=(Solvent=water) volume pop
 =NPA density=current Geom=AllCheck Guess=Read
 ----------------------------------------------------------------------

 Structure from the checkpoint file:  "CJKRXEBLWJVYJD-UHFFFAOYSA-N_conf_2_2.chk"
 ----------------------------------
 CJKRXEBLWJVYJD-UHFFFAOYSA-N_conf_2
 ----------------------------------
 Charge =  0 Multiplicity = 1

                         Standard orientation:
 ---------------------------------------------------------------------
 Center     Atomic      Atomic             Coordinates (Angstroms)
 Number     Number       Type             X           Y           Z
 ---------------------------------------------------------------------
      1          6           0       -3.820114    0.313652   -0.188021
      2          6           0       -2.749414   -0.682803    0.260575
      3          7           0       -1.439659   -0.409112   -0.336373
      4          6           0       -0.739791    0.735299    0.245584
      5          6           0        0.726289    0.740271   -0.188736
      6          7           0        1.396564   -0.481254    0.268124
      7          6           0        2.737760   -0.703376   -0.283042
      8          6           0        3.807670    0.334190    0.086039
      9          1           0       -4.795271    0.042393    0.229540
     10          1           0       -3.591370    1.331618    0.143804
     11          1           0       -3.902378    0.324762   -1.279716
     12          1           0       -3.047791   -1.691135   -0.049625
     13          1           0       -2.708845   -0.691682    1.366930
     14          1           0       -0.831323   -1.212077   -0.184272
     15          1           0       -0.786751    0.737735    1.353671
     16          1           0       -1.208076    1.670428   -0.084399
     17          1           0        1.199790    1.669810    0.167225
     18          1           0        0.773159    0.754567   -1.284994
     19          1           0        1.456919   -0.461147    1.285483
     20          1           0        3.068965   -1.694546    0.050031
     21          1           0        2.640918   -0.758671   -1.374898
     22          1           0        4.776552    0.055705   -0.342779
     23          1           0        3.553807    1.331669   -0.286197
     24          1           0        3.928962    0.399741    1.173541
 ---------------------------------------------------------------------

 SCF Done:  E(RB3LYP) =  -347.790841540     A.U. after    1 cycles

 Excitation energies and oscillator strengths:

 Excited State   1:      Singlet-A      7.1035 eV  174.54 nm  f=0.0189  <S**2>=0.000
      32 -> 34        -0.26621
      33 -> 34         0.63805
 This state for optimization and/or second-order correction.
 Total Energy, E(TD-HF/TD-DFT) =  -347.529791146
 Copying the excited state density for this state as the 1-particle RhoCI density.

 Excited State   2:      Singlet-A      7.4178 eV  167.14 nm  f=0.0248  <S**2>=0.000
      32 -> 34         0.47969
      32 -> 35         0.11353
      33 -> 34         0.15462
      33 -> 35         0.46604

 Excited State   3:      Singlet-A      7.6994 eV  161.03 nm  f=0.0759  <S**2>=0.000
      32 -> 34        -0.41732
      32 -> 35         0.11773
      33 -> 34        -0.23088
      33 -> 35         0.46101
      33 -> 36         0.16638

 Excited State   4:      Singlet-A      7.9422 eV  156.11 nm  f=0.0108  <S**2>=0.000
      32 -> 36         0.15481
      33 -> 35        -0.20176
      33 -> 36         0.59390
      33 -> 37        -0.22225

 Excited State   5:      Singlet-A      8.0117 eV  154.75 nm  f=0.0066  <S**2>=0.000
      32 -> 35        -0.39638
      32 -> 36        -0.15484
      32 -> 37        -0.16428
      33 -> 36         0.26269
      33 -> 37         0.45329

 Excited State   6:      Singlet-A      8.1314 eV  152.48 nm  f=0.0252  <S**2>=0.000
      32 -> 35         0.52716
      32 -> 37        -0.10030
      33 -> 35        -0.11045
      33 -> 37         0.37455
      33 -> 38         0.14622

 Excited State   7:      Singlet-A      8.3411 eV  148.64 nm  f=0.0955  <S**2>=0.000
      32 -> 36         0.55350
      33 -> 37         0.23455
      33 -> 38        -0.23598
      33 -> 39         0.24787

 Excited State   8:      Singlet-A      8.4427 eV  146.85 nm  f=0.1279  <S**2>=0.000
      32 -> 37         0.62269
      32 -> 39         0.11264
      33 -> 36         0.14438
      33 -> 37         0.14321
      33 -> 38        -0.11840
      33 -> 40         0.15101

 Excited State   9:      Singlet-A      8.5966 eV  144.22 nm  f=0.0569  <S**2>=0.000
      32 -> 35        -0.10493
      32 -> 37         0.12347
      32 -> 39        -0.21345
      33 -> 38         0.40937
      33 -> 39         0.48108

 Excited State  10:      Singlet-A      8.6669 eV  143.05 nm  f=0.0013  <S**2>=0.000
      32 -> 36         0.33633
      32 -> 38         0.11633
      32 -> 39         0.12008
      33 -> 38         0.46040
      33 -> 39        -0.34205

 The electronic state is 1-A.
 Alpha  occ. eigenvalues --  -14.31637 -14.30579 -10.20428 -10.20231 -10.20064
 Alpha  occ. eigenvalues --  -10.19909 -10.17032 -10.16901  -0.90733  -0.88067
 Alpha  occ. eigenvalues --   -0.75558  -0.72591  -0.69112  -0.61848  -0.59430
 Alpha  occ. eigenvalues --   -0.57756  -0.48849  -0.47659  -0.45154  -0.44347
 Alpha  occ. eigenvalues --   -0.44039  -0.41085  -0.40534  -0.38135  -0.37866
 Alpha  occ. eigenvalues --   -0.36488  -0.35393  -0.34708  -0.33726  -0.32876
 Alpha  occ. eigenvalues --   -0.32536  -0.22652  -0.21294
 Alpha virt. eigenvalues --    0.08762   0.10104   0.11868   0.12240   0.13590
 Alpha virt. eigenvalues --    0.13751   0.15506   0.16817   0.17034   0.17114
 Alpha virt. eigenvalues --    0.17838   0.18481   0.19106   0.19417   0.20667

 Mulliken charges:
               1
     1  C   -0.318304
     2  C   -0.053227
     3  N   -0.426132
     4  C   -0.020497
     5  C   -0.045758
     6  N   -0.200506
     7  C   -0.042030
     8  C   -0.267729
     9  H    0.103813
    10  H    0.109538
    11  H    0.113703
    12  H    0.105084
    13  H    0.096776
    14  H    0.207068
    15  H    0.046283
    16  H    0.086878
    17  H    0.070991
    18  H    0.101119
    19  H   -0.037886
    20  H    0.063772
    21  H    0.097414
    22  H    0.064838
    23  H    0.081521
    24  H    0.063271
 Sum of Mulliken charges =  -0.00000

 Dipole moment (field-independent basis, Debye):
    X=             -1.4612    Y=             -0.1986    Z=             -0.6328  Tot=              1.6047
 Quadrupole moment (field-independent basis, Debye-Ang):
   XX=            -55.7771   YY=            -53.4880   ZZ=            -57.9711
   XY=              0.5098   XZ=             -3.8731   YZ=              0.0204

 Summary of Natural Population Analysis:

                                       Natural Population
                Natural  -----------------------------------------------
    Atom  No    Charge         Core      Valence    Rydberg      Total
 -----------------------------------------------------------------------
      C    1   -0.70116      1.99946     4.69378    0.00792     6.70116
      C    2   -0.28622      1.99937     4.27120    0.01565     6.28622
      N    3   -0.57814      1.99949     5.56402    0.01463     7.57814
      C    4   -0.29136      1.99932     4.27525    0.01679     6.29136
      C    5   -0.33464      1.99931     4.31585    0.01947     6.33464
      N    6   -0.35521      1.99941     5.33888    0.01692     7.35521
      C    7   -0.32422      1.99939     4.30701    0.01782     6.32422
      C    8   -0.69841      1.99941     4.68877    0.01022     6.69841
      H    9    0.23411      0.00000     0.76190    0.00399     0.76589
      H   10    0.22859      0.00000     0.76725    0.00416     0.77141
      H   11    0.23566      0.00000     0.76219    0.00215     0.76434
      H   12    0.23592      0.00000     0.75912    0.00496     0.76408
      H   13    0.21590      0.00000     0.77628    0.00782     0.78410
      H   14    0.35723      0.00000     0.61902    0.02374     0.64277
      H   15    0.18502      0.00000     0.78719    0.02780     0.81498
      H   16    0.21633      0.00000     0.77017    0.01350     0.78367
      H   17    0.21014      0.00000     0.75611    0.03376     0.78986
      H   18    0.23009      0.00000     0.75417    0.01574     0.76991
      H   19    0.17095      0.00000     0.72887    0.10019     0.82905
      H   20    0.20851      0.00000     0.76743    0.02406     0.79149
      H   21    0.22255      0.00000     0.76138    0.01607     0.77745
      H   22    0.20274      0.00000     0.78084    0.01642     0.79726
      H   23    0.21198      0.00000     0.77300    0.01502     0.78802
      H   24    0.20364      0.00000     0.77398    0.02237     0.79636
 =======================================================================
   * Total *   -0.00000     15.99516    49.55365    0.45120    66.00000

 Normal termination of Gaussian 16 at Wed Jul 17 14:48:45 2024.
