 Gaussian 16, Revision A.03,

 -------------------------------------------------------
 # opt=CalcFc B3LYP/6-31G** SCRF=(Solvent=water) scf=xqc
 -------------------------------------------------------

 ----------------------------------
 CJKRXEBLWJVYJD-UHFFFAOYSA-N_conf_1
 ----------------------------------
 Symbolic Z-matrix:
 Charge =  0 Multiplicity = 1

 SCF Done:  E(RB3LYP) =  -347.786909082     A.U. after   11 cycles
 SCF Done:  E(RB3LYP) =  -347.789791861     A.U. after    9 cycles
 SCF Done:  E(RB3LYP) =  -347.789956147     A.U. after    9 cycles
 SCF Done:  E(RB3LYP) =  -347.789962085     A.U. after    7 cycles
 SCF Done:  E(RB3LYP) =  -347.789961842     A.U. after    7 cycles
 Optimization completed.
    -- Stationary point found.
 Normal termination of Gaussian 16 at Wed Jul 17 14:35:17 2024.

 ----------------------------------------------------------------------
 # freq B3LYP/6-31G** SCRF=(Solvent=water) volume NMR pop=NPA density=c
 urrent Geom=AllCheck Guess=Read
 ----------------------------------------------------------------------

 Structure from the checkpoint file:  "CJKRXEBLWJVYJD-UHFFFAOYSA-N_conf_1_1.chk"
 ----------------------------------
 CJKRXEBLWJVYJD-UHFFFAOYSA-N_conf_1
 ----------------------------------
 Charge =  0 Multiplicity = 1

 SCF Done:  E(RB3LYP) =  -347.789961842     A.U. after    1 cycles

      1  C    Isotropic =   175.2339   Anisotropy =    25.4146

      2  C    Isotropic =   144.7696   Anisotropy =    45.8885

      3  N    Isotropic =   210.4021   Anisotropy =    34.4357

      4  C    Isotropic =   140.2873   Anisotropy =    52.8706

      5  C    Isotropic =   139.5175   Anisotropy =    49.7495

      6  N    Isotropic =   213.7912   Anisotropy =    37.9223

      7  C    Isotropic =   145.8608   Anisotropy =    42.4758

      8  C    Isotropic =   175.3351   Anisotropy =    25.4087

      9  H    Isotropic =    30.6628   Anisotropy =     9.9662

     10  H    Isotropic =    30.6086   Anisotropy =     8.2175

     11  H    Isotropic =    30.8088   Anisotropy =     7.8642

     12  H    Isotropic =    29.2928   Anisotropy =     6.4749

     13  H    Isotropic =    28.9955   Anisotropy =     6.7985

     14  H    Isotropic =    31.9172   Anisotropy =     9.4912

     15  H    Isotropic =    28.8694   Anisotropy =     6.7007

     16  H    Isotropic =    29.4644   Anisotropy =     4.5526

     17  H    Isotropic =    29.2973   Anisotropy =     4.6784

     18  H    Isotropic =    28.7904   Anisotropy =     5.8406

     19  H    Isotropic =    31.2148   Anisotropy =    12.4722

     20  H    Isotropic =    29.0507   Anisotropy =     5.1552

     21  H    Isotropic =    29.1878   Anisotropy =     6.8970

     22  H    Isotropic =    30.8505   Anisotropy =     8.2519

     23  H    Isotropic =    30.6749   Anisotropy =     8.1454

     24  H    Isotropic =    30.6766   Anisotropy =     9.8797

  Exact polarizability: 116.366   0.501  95.274   0.228   0.004  94.049
 Approx polarizability: 110.223   0.094 103.964   0.309  -0.469 104.194

                      1                      2                      3
                      A                      A                      A
 Frequencies --     45.0279                61.4681                70.2936
 Red. masses --      2.3293                 2.0060                 2.0764
 Frc consts  --      0.0028                 0.0045                 0.0060
 IR Inten    --      0.4390                 0.4218                 2.2390

                      4                      5                      6
                      A                      A                      A
 Frequencies --    124.1638               136.0223               158.2241
 Red. masses --      2.5734                 2.2363                 2.7088
 Frc consts  --      0.0234                 0.0244                 0.0400
 IR Inten    --      1.6917                 1.5557                 4.0709

                      7                      8                      9
                      A                      A                      A
 Frequencies --    253.7083               258.9396               282.2027
 Red. masses --      1.1777                 1.1431                 2.4552
 Frc consts  --      0.0447                 0.0452                 0.1152
 IR Inten    --      0.5855                 1.2061                 4.8922

                     10                     11                     12
                      A                      A                      A
 Frequencies --    305.0068               362.4821               454.2829
 Red. masses --      2.6216                 3.0798                 2.9633
 Frc consts  --      0.1437                 0.2384                 0.3603
 IR Inten    --      4.7263                 3.7362                 1.2031

                     13                     14                     15
                      A                      A                      A
 Frequencies --    551.1725               775.4160               802.0279
 Red. masses --      2.9962                 1.4726                 1.1895
 Frc consts  --      0.5363                 0.5217                 0.4508
 IR Inten    --     11.0799               128.4999                99.2910

                     16                     17                     18
                      A                      A                      A
 Frequencies --    805.6328               821.1080               837.3399
 Red. masses --      1.1152                 1.1674                 1.2744
 Frc consts  --      0.4265                 0.4637                 0.5264
 IR Inten    --      8.2640                 7.4477                29.7306

                     19                     20                     21
                      A                      A                      A
 Frequencies --    898.2621               922.9029              1019.3665
 Red. masses --      1.5554                 1.5895                 2.7201
 Frc consts  --      0.7394                 0.7977                 1.6653
 IR Inten    --      7.4824                 4.6204                14.5603

                     22                     23                     24
                      A                      A                      A
 Frequencies --   1039.8663              1052.3094              1075.7820
 Red. masses --      2.8829                 2.4733                 1.5013
 Frc consts  --      1.8367                 1.6137                 1.0237
 IR Inten    --      8.9291                 7.0149                 9.9474

                     25                     26                     27
                      A                      A                      A
 Frequencies --   1126.7327              1135.9660              1148.4850
 Red. masses --      1.6024                 2.6058                 2.6699
 Frc consts  --      1.1986                 1.9812                 2.0749
 IR Inten    --      5.0218                76.9643                20.9049

                     28                     29                     30
                      A                      A                      A
 Frequencies --   1156.0103              1183.0907              1216.0833
 Red. masses --      2.7584                 1.6829                 1.9512
 Frc consts  --      2.1719                 1.3879                 1.7001
 IR Inten    --     75.1612                 8.2845                 2.9423

                     31                     32                     33
                      A                      A                      A
 Frequencies --   1265.9318              1296.9768              1314.1218
 Red. masses --      1.3691                 1.1457                 1.1992
 Frc consts  --      1.2927                 1.1355                 1.2202
 IR Inten    --      8.9917                 9.3546                14.1811

                     34                     35                     36
                      A                      A                      A
 Frequencies --   1326.3639              1338.5135              1388.5037
 Red. masses --      1.1188                 1.2459                 1.2820
 Frc consts  --      1.1596                 1.3152                 1.4562
 IR Inten    --      1.0304                40.8249                 5.3746

                     37                     38                     39
                      A                      A                      A
 Frequencies --   1392.4853              1418.9089              1421.5218
 Red. masses --      1.3017                 1.3050                 1.3146
 Frc consts  --      1.4871                 1.5480                 1.5651
 IR Inten    --      2.2024                 2.9597                 6.0784

                     40                     41                     42
                      A                      A                      A
 Frequencies --   1437.8925              1483.8649              1488.2189
 Red. masses --      1.4626                 1.1373                 1.1130
 Frc consts  --      1.7817                 1.4754                 1.4523
 IR Inten    --     22.0129                22.8515                 6.2260

                     43                     44                     45
                      A                      A                      A
 Frequencies --   1498.4859              1500.0098              1501.1542
 Red. masses --      1.0723                 1.0416                 1.0440
 Frc consts  --      1.4186                 1.3808                 1.3861
 IR Inten    --      3.4429                13.0616                 6.1204

                     46                     47                     48
                      A                      A                      A
 Frequencies --   1507.1594              1510.4923              1524.3725
 Red. masses --      1.1216                 1.1832                 1.0888
 Frc consts  --      1.5011                 1.5906                 1.4907
 IR Inten    --     15.9459                11.3828                10.7977

                     49                     50                     51
                      A                      A                      A
 Frequencies --   1533.1538              1534.7543              2923.2305
 Red. masses --      1.0928                 1.0915                 1.0727
 Frc consts  --      1.5135                 1.5147                 5.4010
 IR Inten    --      3.1722                 0.5419               140.3566

                     52                     53                     54
                      A                      A                      A
 Frequencies --   2930.5719              2932.0859              2939.1749
 Red. masses --      1.0736                 1.0736                 1.0722
 Frc consts  --      5.4324                 5.4379                 5.4574
 IR Inten    --    115.5174               145.3875               144.4701

                     55                     56                     57
                      A                      A                      A
 Frequencies --   3039.2546              3039.4224              3042.0439
 Red. masses --      1.0391                 1.0492                 1.0717
 Frc consts  --      5.6552                 5.7110                 5.8433
 IR Inten    --     44.6496                 6.7720                60.3398

                     58                     59                     60
                      A                      A                      A
 Frequencies --   3053.1688              3059.3681              3080.1019
 Red. masses --      1.0862                 1.0863                 1.0905
 Frc consts  --      5.9659                 5.9906                 6.0954
 IR Inten    --     63.3345                43.2696                76.4278

                     61                     62                     63
                      A                      A                      A
 Frequencies --   3107.0336              3107.1463              3122.1613
 Red. masses --      1.1009                 1.1011                 1.1030
 Frc consts  --      6.2616                 6.2632                 6.3350
 IR Inten    --     68.4731                67.3110                49.3958

                     64                     65                     66
                      A                      A                      A
 Frequencies --   3122.4340              3480.9831              3510.5088
 Red. masses --      1.1030                 1.0735                 1.0745
 Frc consts  --      6.3360                 7.6643                 7.8020
 IR Inten    --     48.6124                 1.5937                 0.4129

 - Thermochemistry -
 -------------------
 Temperature   298.150 Kelvin.  Pressure   1.00000 Atm.
 Atom     1 has atomic number  6 and mass  12.00000

 Molecular mass:   116.13135 amu.
 Principal axes and moments of inertia in atomic units:
                           1         2         3
     Eigenvalues --   243.337513113.814443202.98420
           X            1.00000   0.00034  -0.00048
           Y           -0.00032   0.99950   0.03161
           Z            0.00050  -0.03161   0.99950
 This molecule is an asymmetric top.
 Rotational symmetry number  1.
 Rotational temperatures (Kelvin)      0.35594     0.02782     0.02704
 Rotational constants (GHZ):           7.41662     0.57959     0.56346
 Zero-point vibrational energy     587671.2 (Joules/Mol)
                                  140.45679 (Kcal/Mol)
 Warning -- explicit consideration of  13 degrees of freedom as
           vibrations may cause significant error
 Vibrational temperatures:     64.79    88.44   101.14   178.64   195.71
          (Kelvin)            227.65   365.03   372.56   406.03   438.84
                              521.53   653.61   793.01  1115.65  1153.94
                             1159.13  1181.39  1204.75  1292.40  1327.85
                             1466.64  1496.14  1514.04  1547.81  1621.12
                             1634.40  1652.41  1663.24  1702.20  1749.67
                             1821.39  1866.06  1890.73  1908.34  1925.82
                             1997.75  2003.48  2041.49  2045.25  2068.81
                             2134.95  2141.22  2155.99  2158.18  2159.83
                             2168.47  2173.26  2193.23  2205.87  2208.17
                             4205.88  4216.44  4218.62  4228.82  4372.81
                             4373.05  4376.82  4392.83  4401.75  4431.58
                             4470.33  4470.49  4492.09  4492.49  5008.36
                             5050.84

 Zero-point correction=                           0.223832 (Hartree/Particle)
 Thermal correction to Energy=                    0.234574
 Thermal correction to Enthalpy=                  0.235518
 Thermal correction to Gibbs Free Energy=         0.186859
 Sum of electronic and zero-point Energies=           -347.566130
 Sum of electronic and thermal Energies=              -347.555388
 Sum of electronic and thermal Enthalpies=            -347.554444
 Sum of electronic and thermal Free Energies=         -347.603103

                     E (Thermal)             CV                S
                      KCal/Mol        Cal/Mol-Kelvin    Cal/Mol-Kelvin
 Total                  147.197             37.371            102.412
 Electronic               0.000              0.000              0.000
 Translational            0.889              2.981             40.164
 Rotational               0.889              2.981             29.275
 Vibrational            145.420             31.409             32.974
 Vibration     1          0.595              1.979              5.025
 Vibration     2          0.597              1.973              4.409
 Vibration     3          0.598              1.968              4.145
 Vibration     4          0.610              1.929              3.035
 Vibration     5          0.614              1.917              2.859
 Vibration     6          0.621              1.893              2.571
 Vibration     7          0.665              1.757              1.705
 Vibration     8          0.668              1.748              1.669
 Vibration     9          0.681              1.707              1.520
 Vibration    10          0.696              1.664              1.389
 Vibration    11          0.736              1.550              1.111
 Vibration    12          0.813              1.351              0.783
 Vibration    13          0.906              1.137              0.542

 Optimization completed.
    -- Stationary point found.
 Normal termination of Gaussian 16 at Wed Jul 17 14:39:54 2024.
 Gaussian 16:  ES64L-G16RevA.03 25-Dec-2016

 ----------------------------------------------------------------------
 # TD(NStates=10, Root=1) B3LYP/6-31G** SCRF=(Solvent=water) volume pop
 =NPA density=current Geom=AllCheck Guess=Read
 ----------------------------------------------------------------------

 Structure from the checkpoint file:  "CJKRXEBLWJVYJD-UHFFFAOYSA-N_conf_1_2.chk"
 ----------------------------------
 CJKRXEBLWJVYJD-UHFFFAOYSA-N_conf_1
 ----------------------------------
 Charge =  0 Multiplicity = 1

                         Standard orientation:
 ---------------------------------------------------------------------
 Center     Atomic      Atomic             Coordinates (Angstroms)
 Number     Number       Type             X           Y           Z
 ---------------------------------------------------------------------
      1          6           0        4.188434   -0.163159    0.267007
      2          6           0        2.834655   -0.571796   -0.307757
      3          7           0        1.779700    0.356313    0.107037
      4          6           0        0.453605   -0.032232   -0.374421
      5          6           0       -0.605533    0.971450    0.090712
      6          7           0       -1.948114    0.614904   -0.379114
      7          6           0       -2.637562   -0.367652    0.464132
      8          6           0       -4.051970   -0.629696   -0.046313
      9          1           0        4.975368   -0.844431   -0.070894
     10          1           0        4.452743    0.852386   -0.043933
     11          1           0        4.174854   -0.188243    1.362924
     12          1           0        2.879846   -0.558916   -1.404703
     13          1           0        2.611598   -1.617044   -0.021582
     14          1           0        1.757120    0.372536    1.126565
     15          1           0        0.172006   -1.054020   -0.058977
     16          1           0        0.470362   -0.041273   -1.471391
     17          1           0       -0.559265    1.060672    1.193356
     18          1           0       -0.346021    1.955074   -0.314563
     19          1           0       -2.513580    1.460770   -0.395173
     20          1           0       -2.065524   -1.302700    0.445978
     21          1           0       -2.676970   -0.050727    1.523410
     22          1           0       -4.655163    0.285528   -0.021620
     23          1           0       -4.031870   -0.992496   -1.078674
     24          1           0       -4.556387   -1.377127    0.573654
 ---------------------------------------------------------------------

 SCF Done:  E(RB3LYP) =  -347.789961842     A.U. after    1 cycles

 Excitation energies and oscillator strengths:

 Excited State   1:      Singlet-A      7.2208 eV  171.70 nm  f=0.0096  <S**2>=0.000
      32 -> 34         0.12360
      32 -> 35         0.31715
      33 -> 34         0.59774
      33 -> 35         0.12091
 This state for optimization and/or second-order correction.
 Total Energy, E(TD-HF/TD-DFT) =  -347.524600983
 Copying the excited state density for this state as the 1-particle RhoCI density.

 Excited State   2:      Singlet-A      7.2385 eV  171.28 nm  f=0.0180  <S**2>=0.000
      32 -> 34         0.36193
      32 -> 35        -0.18584
      33 -> 35         0.56104

 Excited State   3:      Singlet-A      7.6948 eV  161.13 nm  f=0.0184  <S**2>=0.000
      32 -> 34         0.53795
      32 -> 35         0.19851
      33 -> 34        -0.13814
      33 -> 35        -0.32039
      33 -> 36         0.14208
      33 -> 37         0.11811

 Excited State   4:      Singlet-A      7.7609 eV  159.75 nm  f=0.0431  <S**2>=0.000
      32 -> 34        -0.14477
      32 -> 35         0.55586
      32 -> 37        -0.10693
      33 -> 34        -0.31003
      33 -> 35         0.22443

 Excited State   5:      Singlet-A      8.0567 eV  153.89 nm  f=0.0628  <S**2>=0.000
      32 -> 34        -0.12902
      32 -> 36        -0.29575
      32 -> 37         0.15150
      33 -> 36         0.56169
      33 -> 37        -0.17354

 Excited State   6:      Singlet-A      8.1231 eV  152.63 nm  f=0.0214  <S**2>=0.000
      32 -> 37        -0.12230
      32 -> 38         0.28565
      33 -> 37        -0.25200
      33 -> 38         0.56620

 Excited State   7:      Singlet-A      8.2660 eV  149.99 nm  f=0.0329  <S**2>=0.000
      32 -> 36         0.35385
      33 -> 36         0.30797
      33 -> 37         0.44842
      33 -> 38         0.21188

 Excited State   8:      Singlet-A      8.4460 eV  146.80 nm  f=0.1090  <S**2>=0.000
      32 -> 36         0.47184
      32 -> 37         0.11358
      32 -> 38        -0.13107
      32 -> 39         0.15905
      33 -> 36         0.15230
      33 -> 37        -0.39043
      33 -> 38        -0.11021

 Excited State   9:      Singlet-A      8.4927 eV  145.99 nm  f=0.0894  <S**2>=0.000
      32 -> 36        -0.15866
      32 -> 37         0.48705
      32 -> 38        -0.27202
      33 -> 36        -0.10486
      33 -> 38         0.26242
      33 -> 39        -0.24443

 Excited State  10:      Singlet-A      8.5500 eV  145.01 nm  f=0.0643  <S**2>=0.000
      32 -> 37         0.32230
      32 -> 38         0.54050
      33 -> 36        -0.12090
      33 -> 38        -0.17722
      33 -> 39        -0.15289

 The electronic state is 1-A.
 Alpha  occ. eigenvalues --  -14.31394 -14.31301 -10.20269 -10.20252 -10.20168
 Alpha  occ. eigenvalues --  -10.19851 -10.17281 -10.17245  -0.90474  -0.88780
 Alpha  occ. eigenvalues --   -0.75816  -0.73306  -0.68105  -0.61241  -0.60015
 Alpha  occ. eigenvalues --   -0.58181  -0.49080  -0.47458  -0.45478  -0.44627
 Alpha  occ. eigenvalues --   -0.43342  -0.42249  -0.41525  -0.38058  -0.36957
 Alpha  occ. eigenvalues --   -0.36133  -0.35304  -0.34666  -0.34224  -0.33098
 Alpha  occ. eigenvalues --   -0.32344  -0.22594  -0.21812
 Alpha virt. eigenvalues --    0.08999   0.09111   0.11611   0.11900   0.12268
 Alpha virt. eigenvalues --    0.14018   0.15390   0.15843   0.16881   0.17321
 Alpha virt. eigenvalues --    0.17927   0.18518   0.19120   0.19994   0.20554

 Mulliken charges:
               1
     1  C   -0.308077
     2  C   -0.023682
     3  N   -0.202521
     4  C   -0.063065
     5  C   -0.076801
     6  N   -0.414219
     7  C   -0.041102
     8  C   -0.323529
     9  H    0.084325
    10  H    0.104250
    11  H    0.064038
    12  H    0.083570
    13  H    0.062385
    14  H   -0.004384
    15  H    0.091173
    16  H    0.113725
    17  H    0.086002
    18  H    0.107269
    19  H    0.152026
    20  H    0.114643
    21  H    0.089636
    22  H    0.091938
    23  H    0.109347
    24  H    0.103054
 Sum of Mulliken charges =  -0.00000

 Dipole moment (field-independent basis, Debye):
    X=             -0.8410    Y=             -0.0796    Z=             -0.3079  Tot=              0.8991
 Quadrupole moment (field-independent basis, Debye-Ang):
   XX=            -57.0232   YY=            -53.7346   ZZ=            -57.1053
   XY=             -0.0263   XZ=             -4.2810   YZ=              0.2191

 Summary of Natural Population Analysis:

                                       Natural Population
                Natural  -----------------------------------------------
    Atom  No    Charge         Core      Valence    Rydberg      Total
 -----------------------------------------------------------------------
      C    1   -0.71026      1.99946     4.70014    0.01065     6.71026
      C    2   -0.32855      1.99937     4.31110    0.01808     6.32855
      N    3   -0.34273      1.99937     5.32509    0.01827     7.34273
      C    4   -0.35193      1.99932     4.32680    0.02581     6.35193
      C    5   -0.31374      1.99932     4.28916    0.02525     6.31374
      N    6   -0.59178      1.99949     5.57681    0.01548     7.59178
      C    7   -0.27948      1.99937     4.26562    0.01449     6.27948
      C    8   -0.70166      1.99946     4.69378    0.00842     6.70166
      H    9    0.21806      0.00000     0.77296    0.00898     0.78194
      H   10    0.23144      0.00000     0.76293    0.00563     0.76856
      H   11    0.20204      0.00000     0.77831    0.01964     0.79796
      H   12    0.21703      0.00000     0.76246    0.02051     0.78297
      H   13    0.20483      0.00000     0.76040    0.03477     0.79517
      H   14    0.19477      0.00000     0.71740    0.08782     0.80523
      H   15    0.22267      0.00000     0.75245    0.02488     0.77733
      H   16    0.23655      0.00000     0.75140    0.01205     0.76345
      H   17    0.21150      0.00000     0.77666    0.01184     0.78850
      H   18    0.23686      0.00000     0.75612    0.00703     0.76314
      H   19    0.31613      0.00000     0.64200    0.04188     0.68387
      H   20    0.22949      0.00000     0.76663    0.00389     0.77051
      H   21    0.21217      0.00000     0.77842    0.00941     0.78783
      H   22    0.21775      0.00000     0.77315    0.00910     0.78225
      H   23    0.23355      0.00000     0.76294    0.00351     0.76645
      H   24    0.23529      0.00000     0.76102    0.00369     0.76471
 =======================================================================
   * Total *   -0.00000     15.99517    49.56375    0.44108    66.00000

 Normal termination of Gaussian 16 at Wed Jul 17 14:45:09 2024.
