 Gaussian 16, Revision A.03,

 -------------------------------------------------------
 # opt=CalcFc B3LYP/6-31G** SCRF=(Solvent=water) scf=xqc
 -------------------------------------------------------

 ----------------------------------
 DDAPSNKEOHDLKB-UHFFFAOYSA-N_conf_2
 ----------------------------------
 Symbolic Z-matrix:
 Charge =  0 Multiplicity = 1

 SCF Done:  E(RB3LYP) =  -881.331772132     A.U. after   13 cycles
 SCF Done:  E(RB3LYP) =  -881.341076010     A.U. after   11 cycles
 SCF Done:  E(RB3LYP) =  -881.341419923     A.U. after   10 cycles
 SCF Done:  E(RB3LYP) =  -881.341273532     A.U. after   11 cycles
 SCF Done:  E(RB3LYP) =  -881.341440864     A.U. after   10 cycles
 SCF Done:  E(RB3LYP) =  -881.341446367     A.U. after    8 cycles
 SCF Done:  E(RB3LYP) =  -881.341446527     A.U. after    7 cycles
 Optimization completed.
    -- Stationary point found.
 Normal termination of Gaussian 16 at Wed Jul 17 15:32:48 2024.

 ----------------------------------------------------------------------
 # freq B3LYP/6-31G** SCRF=(Solvent=water) volume NMR pop=NPA density=c
 urrent Geom=AllCheck Guess=Read
 ----------------------------------------------------------------------

 Structure from the checkpoint file:  "DDAPSNKEOHDLKB-UHFFFAOYSA-N_conf_2_1.chk"
 ----------------------------------
 DDAPSNKEOHDLKB-UHFFFAOYSA-N_conf_2
 ----------------------------------
 Charge =  0 Multiplicity = 1

 SCF Done:  E(RB3LYP) =  -881.341446527     A.U. after    1 cycles

      1  N    Isotropic =   197.0851   Anisotropy =    54.3533

      2  C    Isotropic =    51.3473   Anisotropy =   156.4513

      3  C    Isotropic =    78.3103   Anisotropy =   133.5127

      4  C    Isotropic =    65.9639   Anisotropy =   147.6484

      5  C    Isotropic =    68.5921   Anisotropy =   189.7186

      6  C    Isotropic =    67.6798   Anisotropy =   147.9148

      7  C    Isotropic =    74.9292   Anisotropy =   158.8768

      8  C    Isotropic =    70.0684   Anisotropy =   163.9547

      9  C    Isotropic =    72.9422   Anisotropy =   154.8498

     10  C    Isotropic =    60.6161   Anisotropy =   194.1030

     11  C    Isotropic =    81.8447   Anisotropy =   110.7102

     12  C    Isotropic =    81.8713   Anisotropy =   110.5953

     13  C    Isotropic =    61.3015   Anisotropy =   192.8219

     14  C    Isotropic =    73.4094   Anisotropy =   154.5063

     15  C    Isotropic =    70.1114   Anisotropy =   163.9669

     16  C    Isotropic =    74.9948   Anisotropy =   158.8396

     17  C    Isotropic =    67.6804   Anisotropy =   147.9119

     18  C    Isotropic =    68.6715   Anisotropy =   189.5297

     19  C    Isotropic =    66.0084   Anisotropy =   147.6409

     20  C    Isotropic =    78.4127   Anisotropy =   133.6888

     21  C    Isotropic =    50.6053   Anisotropy =   158.0913

     22  N    Isotropic =   197.0933   Anisotropy =    55.4008

     23  H    Isotropic =    28.6628   Anisotropy =    11.3757

     24  H    Isotropic =    28.4478   Anisotropy =    14.6111

     25  H    Isotropic =    24.4914   Anisotropy =     6.1852

     26  H    Isotropic =    23.8174   Anisotropy =     5.5572

     27  H    Isotropic =    23.9107   Anisotropy =     6.1439

     28  H    Isotropic =    24.3846   Anisotropy =     3.9590

     29  H    Isotropic =    24.3938   Anisotropy =     7.0649

     30  H    Isotropic =    24.6052   Anisotropy =    14.4532

     31  H    Isotropic =    24.6657   Anisotropy =    14.4719

     32  H    Isotropic =    24.4316   Anisotropy =     7.0671

     33  H    Isotropic =    24.4040   Anisotropy =     3.9550

     34  H    Isotropic =    23.9147   Anisotropy =     6.1214

     35  H    Isotropic =    23.8119   Anisotropy =     5.5487

     36  H    Isotropic =    24.4866   Anisotropy =     6.1752

     37  H    Isotropic =    28.3848   Anisotropy =    14.9622

     38  H    Isotropic =    28.4385   Anisotropy =    10.8912

  Exact polarizability: 378.815  -0.776 294.788  -5.912   0.585 293.449
 Approx polarizability: 436.076  -1.291 367.180  -6.771   1.067 368.787

                      1                      2                      3
                      A                      A                      A
 Frequencies --     16.3598                56.3931                57.8793
 Red. masses --      5.3339                 4.5016                 4.4532
 Frc consts  --      0.0008                 0.0084                 0.0088
 IR Inten    --      0.3568                 0.4784                 0.2733

                      4                      5                      6
                      A                      A                      A
 Frequencies --    105.6027               106.7338               148.7958
 Red. masses --      4.5700                 4.4753                 4.0839
 Frc consts  --      0.0300                 0.0300                 0.0533
 IR Inten    --      2.8637                 3.1407                 0.4653

                      7                      8                      9
                      A                      A                      A
 Frequencies --    149.9774               193.2709               233.9763
 Red. masses --      3.9925                 5.0094                 4.1058
 Frc consts  --      0.0529                 0.1102                 0.1324
 IR Inten    --      0.1026                 0.3447                 1.3739

                     10                     11                     12
                      A                      A                      A
 Frequencies --    236.8285               303.9955               343.6061
 Red. masses --      4.1918                 3.6416                 3.4043
 Frc consts  --      0.1385                 0.1983                 0.2368
 IR Inten    --      3.5757                15.8828                23.4327

                     13                     14                     15
                      A                      A                      A
 Frequencies --    350.8349               356.6255               366.5835
 Red. masses --      1.3415                 1.4359                 1.8562
 Frc consts  --      0.0973                 0.1076                 0.1470
 IR Inten    --     49.2788                53.1541                14.3466

                     16                     17                     18
                      A                      A                      A
 Frequencies --    370.8958               427.9172               428.9917
 Red. masses --      2.9373                 3.5071                 3.5997
 Frc consts  --      0.2381                 0.3784                 0.3903
 IR Inten    --      9.2054                 0.9953                 0.7013

                     19                     20                     21
                      A                      A                      A
 Frequencies --    442.1052               442.2413               486.1085
 Red. masses --      5.6270                 5.3277                 3.7272
 Frc consts  --      0.6480                 0.6139                 0.5189
 IR Inten    --      9.9248                10.8239                 9.6812

                     22                     23                     24
                      A                      A                      A
 Frequencies --    503.2114               527.6726               533.2091
 Red. masses --      3.4397                 5.3052                 2.3799
 Frc consts  --      0.5132                 0.8703                 0.3987
 IR Inten    --      6.3382                22.1748               152.3926

                     25                     26                     27
                      A                      A                      A
 Frequencies --    535.9431               540.4905               572.7782
 Red. masses --      2.5064                 4.9266                 2.3827
 Frc consts  --      0.4242                 0.8480                 0.4606
 IR Inten    --    174.2349                11.3287               202.0195

                     28                     29                     30
                      A                      A                      A
 Frequencies --    577.1187               587.9665               594.9295
 Red. masses --      2.1618                 2.5437                 2.7785
 Frc consts  --      0.4242                 0.5181                 0.5794
 IR Inten    --    301.5192               234.6261               198.7796

                     31                     32                     33
                      A                      A                      A
 Frequencies --    639.5168               678.2353               691.0138
 Red. masses --      6.2116                 5.7954                 3.6981
 Frc consts  --      1.4968                 1.5707                 1.0404
 IR Inten    --      2.2837                 2.3289                14.8934

                     34                     35                     36
                      A                      A                      A
 Frequencies --    692.0569               737.8533               743.4973
 Red. masses --      3.8357                 4.9965                 4.9137
 Frc consts  --      1.0824                 1.6027                 1.6004
 IR Inten    --      9.5218                 6.2821                 5.9879

                     37                     38                     39
                      A                      A                      A
 Frequencies --    765.2644               765.9598               777.6543
 Red. masses --      1.4052                 1.3766                 3.9222
 Frc consts  --      0.4848                 0.4759                 1.3975
 IR Inten    --     21.3638                23.8156                15.6046

                     40                     41                     42
                      A                      A                      A
 Frequencies --    782.5453               800.6036               829.5229
 Red. masses --      4.0603                 5.2950                 1.5184
 Frc consts  --      1.4650                 1.9996                 0.6156
 IR Inten    --     15.4960                 4.8941                68.5183

                     43                     44                     45
                      A                      A                      A
 Frequencies --    830.1785               859.7856               878.3693
 Red. masses --      1.5197                 4.8321                 1.5470
 Frc consts  --      0.6171                 2.1046                 0.7032
 IR Inten    --     68.0951                 1.7918                 1.4818

                     46                     47                     48
                      A                      A                      A
 Frequencies --    879.0038               934.8439               954.7316
 Red. masses --      1.5490                 5.5479                 1.2806
 Frc consts  --      0.7051                 2.8567                 0.6878
 IR Inten    --      1.6676                17.8139                 0.2928

                     49                     50                     51
                      A                      A                      A
 Frequencies --    955.1366               965.0883               967.6022
 Red. masses --      1.2796                 1.8906                 1.3381
 Frc consts  --      0.6878                 1.0375                 0.7381
 IR Inten    --      0.3343                 1.9334                 1.7660

                     52                     53                     54
                      A                      A                      A
 Frequencies --    970.9311               987.3611               993.5101
 Red. masses --      2.1561                 3.2588                 1.2623
 Frc consts  --      1.1976                 1.8718                 0.7341
 IR Inten    --     15.5224                16.5831                 0.0653

                     55                     56                     57
                      A                      A                      A
 Frequencies --    993.6114              1051.5899              1051.8585
 Red. masses --      1.2720                 2.1714                 2.1739
 Frc consts  --      0.7399                 1.4148                 1.4171
 IR Inten    --      0.3063                11.1930                 5.9769

                     58                     59                     60
                      A                      A                      A
 Frequencies --   1064.9254              1132.2486              1139.9657
 Red. masses --      2.6878                 1.6068                 1.5937
 Frc consts  --      1.7959                 1.2136                 1.2203
 IR Inten    --      0.3302                22.4540                13.7602

                     61                     62                     63
                      A                      A                      A
 Frequencies --   1154.8851              1175.4886              1178.3530
 Red. masses --      1.6707                 1.1647                 1.1574
 Frc consts  --      1.3129                 0.9482                 0.9469
 IR Inten    --      1.6062                12.8775                14.5610

                     64                     65                     66
                      A                      A                      A
 Frequencies --   1182.5856              1183.2738              1233.8069
 Red. masses --      1.1403                 1.1444                 1.7051
 Frc consts  --      0.9396                 0.9440                 1.5293
 IR Inten    --      9.6445                11.0542                 0.1953

                     67                     68                     69
                      A                      A                      A
 Frequencies --   1241.9830              1243.3831              1274.5959
 Red. masses --      2.2568                 2.2654                 1.8328
 Frc consts  --      2.0510                 2.0635                 1.7543
 IR Inten    --     26.1164                 5.5251                29.5877

                     70                     71                     72
                      A                      A                      A
 Frequencies --   1303.0247              1314.6613              1315.3107
 Red. masses --      2.0753                 2.4381                 2.4147
 Frc consts  --      2.0761                 2.4828                 2.4613
 IR Inten    --      2.9498                55.8907                45.7534

                     73                     74                     75
                      A                      A                      A
 Frequencies --   1382.7650              1389.2117              1401.5776
 Red. masses --      3.3099                 5.2211                 4.6463
 Frc consts  --      3.7288                 5.9367                 5.3776
 IR Inten    --     81.8372                47.5941                 9.3894

                     76                     77                     78
                      A                      A                      A
 Frequencies --   1408.7087              1416.2426              1432.7753
 Red. masses --      5.8341                 3.5134                 2.6783
 Frc consts  --      6.8213                 4.1519                 3.2394
 IR Inten    --     42.4303               123.4759                13.7926

                     79                     80                     81
                      A                      A                      A
 Frequencies --   1470.1502              1473.3095              1507.4303
 Red. masses --      2.3747                 2.5004                 2.5049
 Frc consts  --      3.0240                 3.1977                 3.3537
 IR Inten    --     46.7825                24.9662                31.4073

                     82                     83                     84
                      A                      A                      A
 Frequencies --   1513.4055              1554.8132              1557.7972
 Red. masses --      2.6046                 3.3951                 3.5701
 Frc consts  --      3.5147                 4.8357                 5.1046
 IR Inten    --     30.3837                71.8991                60.9540

                     85                     86                     87
                      A                      A                      A
 Frequencies --   1612.7799              1616.4762              1638.9388
 Red. masses --      7.3060                 5.6963                 1.5379
 Frc consts  --     11.1964                 8.7696                 2.4338
 IR Inten    --     13.6461                 0.8933                34.3776

                     88                     89                     90
                      A                      A                      A
 Frequencies --   1640.6625              1654.1955              1660.3872
 Red. masses --      1.3325                 3.5661                 2.9347
 Frc consts  --      2.1132                 5.7494                 4.7669
 IR Inten    --     34.3781               140.7231               172.0066

                     91                     92                     93
                      A                      A                      A
 Frequencies --   1667.8848              1668.2996              3173.4772
 Red. masses --      5.6507                 5.6898                 1.0870
 Frc consts  --      9.2615                 9.3303                 6.4499
 IR Inten    --    152.9286               149.7628                 6.0571

                     94                     95                     96
                      A                      A                      A
 Frequencies --   3173.6517              3175.2885              3175.5889
 Red. masses --      1.0870                 1.0866                 1.0865
 Frc consts  --      6.4504                 6.4546                 6.4552
 IR Inten    --      2.7027                14.5994                14.6112

                     97                     98                     99
                      A                      A                      A
 Frequencies --   3183.0034              3183.1707              3191.7921
 Red. masses --      1.0885                 1.0885                 1.0961
 Frc consts  --      6.4974                 6.4980                 6.5793
 IR Inten    --     18.0926                16.4768                67.2188

                    100                    101                    102
                      A                      A                      A
 Frequencies --   3192.1698              3200.0492              3200.2093
 Red. masses --      1.0961                 1.0933                 1.0932
 Frc consts  --      6.5806                 6.5966                 6.5965
 IR Inten    --     36.4212                72.9223                25.1701

                    103                    104                    105
                      A                      A                      A
 Frequencies --   3208.4855              3208.4980              3561.0218
 Red. masses --      1.0958                 1.0957                 1.0480
 Frc consts  --      6.6461                 6.6458                 7.8298
 IR Inten    --     32.0277                35.1647                44.5798

                    106                    107                    108
                      A                      A                      A
 Frequencies --   3562.8222              3668.9934              3670.4779
 Red. masses --      1.0480                 1.0990                 1.0989
 Frc consts  --      7.8377                 8.7168                 8.7230
 IR Inten    --     55.1709                41.0019                44.6757

 - Thermochemistry -
 -------------------
 Temperature   298.150 Kelvin.  Pressure   1.00000 Atm.
 Atom     1 has atomic number  7 and mass  14.00307

 Molecular mass:   284.13135 amu.
 Principal axes and moments of inertia in atomic units:
                           1         2         3
     Eigenvalues --  3923.630758226.240578514.16479
           X            1.00000  -0.00067  -0.00243
           Y            0.00067   1.00000  -0.00147
           Z            0.00243   0.00147   1.00000
 This molecule is an asymmetric top.
 Rotational symmetry number  1.
 Warning -- assumption of classical behavior for rotation
           may cause significant error
 Rotational temperatures (Kelvin)      0.02207     0.01053     0.01017
 Rotational constants (GHZ):           0.45997     0.21939     0.21197
 Zero-point vibrational energy     809341.7 (Joules/Mol)
                                  193.43732 (Kcal/Mol)
 Warning -- explicit consideration of  30 degrees of freedom as
           vibrations may cause significant error
 Vibrational temperatures:     23.54    81.14    83.28   151.94   153.57
          (Kelvin)            214.08   215.78   278.07   336.64   340.74
                              437.38   494.37   504.77   513.10   527.43
                              533.64   615.68   617.22   636.09   636.29
                              699.40   724.01   759.20   767.17   771.10
                              777.65   824.10   830.35   845.95   855.97
                              920.12   975.83   994.21   995.72  1061.61
                             1069.73  1101.04  1102.05  1118.87  1125.91
                             1151.89  1193.50  1194.44  1237.04  1263.78
                             1264.69  1345.03  1373.65  1374.23  1388.55
                             1392.16  1396.95  1420.59  1429.44  1429.59
                             1513.00  1513.39  1532.19  1629.05  1640.16
                             1661.62  1691.27  1695.39  1701.48  1702.47
                             1775.17  1786.94  1788.95  1833.86  1874.76
                             1891.50  1892.44  1989.49  1998.77  2016.56
                             2026.82  2037.66  2061.44  2115.22  2119.76
                             2168.86  2177.45  2237.03  2241.32  2320.43
                             2325.75  2358.07  2360.55  2380.02  2388.93
                             2399.71  2400.31  4565.93  4566.18  4568.53
                             4568.96  4579.63  4579.87  4592.28  4592.82
                             4604.16  4604.39  4616.29  4616.31  5123.52
                             5126.11  5278.86  5281.00

 Zero-point correction=                           0.308262 (Hartree/Particle)
 Thermal correction to Energy=                    0.325396
 Thermal correction to Enthalpy=                  0.326340
 Thermal correction to Gibbs Free Energy=         0.263315
 Sum of electronic and zero-point Energies=           -881.033185
 Sum of electronic and thermal Energies=              -881.016050
 Sum of electronic and thermal Enthalpies=            -881.015106
 Sum of electronic and thermal Free Energies=         -881.078131

                     E (Thermal)             CV                S
                      KCal/Mol        Cal/Mol-Kelvin    Cal/Mol-Kelvin
 Total                  204.189             71.650            132.648
 Electronic               0.000              0.000              0.000
 Translational            0.889              2.981             42.831
 Rotational               0.889              2.981             33.974
 Vibrational            202.412             65.688             55.843
 Vibration     1          0.593              1.986              7.033
 Vibration     2          0.596              1.975              4.580
 Vibration     3          0.596              1.974              4.528
 Vibration     4          0.605              1.945              3.348
 Vibration     5          0.606              1.944              3.327
 Vibration     6          0.618              1.904              2.688
 Vibration     7          0.618              1.903              2.673
 Vibration     8          0.635              1.849              2.196
 Vibration     9          0.654              1.789              1.848
 Vibration    10          0.656              1.784              1.827
 Vibration    11          0.695              1.666              1.395
 Vibration    12          0.722              1.588              1.195
 Vibration    13          0.728              1.574              1.162
 Vibration    14          0.732              1.562              1.137
 Vibration    15          0.739              1.541              1.094
 Vibration    16          0.743              1.532              1.076
 Vibration    17          0.789              1.409              0.865
 Vibration    18          0.790              1.407              0.862
 Vibration    19          0.802              1.378              0.820
 Vibration    20          0.802              1.378              0.820
 Vibration    21          0.842              1.281              0.694
 Vibration    22          0.859              1.243              0.650
 Vibration    23          0.883              1.189              0.592
 Vibration    24          0.888              1.177              0.580
 Vibration    25          0.891              1.171              0.574
 Vibration    26          0.896              1.161              0.564
 Vibration    27          0.929              1.090              0.499
 Vibration    28          0.934              1.081              0.491
 Vibration    29          0.945              1.057              0.471
 Vibration    30          0.953              1.043              0.458

 Optimization completed.
    -- Stationary point found.
 Normal termination of Gaussian 16 at Wed Jul 17 16:14:45 2024.
 Gaussian 16:  ES64L-G16RevA.03 25-Dec-2016

 ----------------------------------------------------------------------
 # TD(NStates=10, Root=1) B3LYP/6-31G** SCRF=(Solvent=water) volume pop
 =NPA density=current Geom=AllCheck Guess=Read
 ----------------------------------------------------------------------

 Structure from the checkpoint file:  "DDAPSNKEOHDLKB-UHFFFAOYSA-N_conf_2_2.chk"
 ----------------------------------
 DDAPSNKEOHDLKB-UHFFFAOYSA-N_conf_2
 ----------------------------------
 Charge =  0 Multiplicity = 1

                         Standard orientation:
 ---------------------------------------------------------------------
 Center     Atomic      Atomic             Coordinates (Angstroms)
 Number     Number       Type             X           Y           Z
 ---------------------------------------------------------------------
      1          7           0        0.041907    2.310406   -1.879634
      2          6           0        0.982628    1.419579   -1.373631
      3          6           0        2.293155    1.420698   -1.939577
      4          6           0        3.277128    0.607079   -1.443211
      5          6           0        3.026632   -0.261721   -0.346131
      6          6           0        4.034819   -1.110494    0.180890
      7          6           0        3.774205   -1.948135    1.243711
      8          6           0        2.481436   -1.964329    1.819775
      9          6           0        1.480877   -1.151865    1.330013
     10          6           0        1.714025   -0.272880    0.233817
     11          6           0        0.689326    0.577852   -0.295466
     12          6           0       -0.689159    0.580208    0.292793
     13          6           0       -1.707058   -0.291241   -0.216419
     14          6           0       -1.464621   -1.202761   -1.284505
     15          6           0       -2.461693   -2.027682   -1.760269
     16          6           0       -3.760341   -1.992530   -1.198454
     17          6           0       -4.030401   -1.123161   -0.163864
     18          6           0       -3.026503   -0.260416    0.348335
     19          6           0       -3.287964    0.643362    1.413814
     20          6           0       -2.307387    1.468897    1.897543
     21          6           0       -0.991875    1.451518    1.344361
     22          7           0       -0.022374    2.268838    1.913832
     23          1           0       -0.921804    2.073905   -1.681991
     24          1           0        0.180765    2.582204   -2.843916
     25          1           0        2.499075    2.083641   -2.775772
     26          1           0        4.268254    0.618954   -1.889060
     27          1           0        5.022405   -1.086733   -0.273288
     28          1           0        4.552948   -2.593144    1.639303
     29          1           0        2.275853   -2.624897    2.657507
     30          1           0        0.493987   -1.174056    1.780238
     31          1           0       -0.472858   -1.241689   -1.722762
     32          1           0       -2.248290   -2.713762   -2.575221
     33          1           0       -4.535932   -2.648245   -1.582420
     34          1           0       -5.022747   -1.084076    0.278722
     35          1           0       -4.285200    0.673679    1.844912
     36          1           0       -2.519828    2.150913    2.716599
     37          1           0       -0.370145    3.108352    2.357952
     38          1           0        0.783404    2.448376    1.328667
 ---------------------------------------------------------------------

 SCF Done:  E(RB3LYP) =  -881.341446527     A.U. after    1 cycles

 Excitation energies and oscillator strengths:

 Excited State   1:      Singlet-A      3.6630 eV  338.47 nm  f=0.0562  <S**2>=0.000
      74 -> 76         0.17216
      74 -> 77        -0.12046
      75 -> 76         0.63069
      75 -> 77         0.22586
 This state for optimization and/or second-order correction.
 Total Energy, E(TD-HF/TD-DFT) =  -881.206832080
 Copying the excited state density for this state as the 1-particle RhoCI density.

 Excited State   2:      Singlet-A      3.6720 eV  337.65 nm  f=0.0109  <S**2>=0.000
      74 -> 76         0.60974
      74 -> 77        -0.20863
      75 -> 76        -0.11591
      75 -> 77        -0.25635

 Excited State   3:      Singlet-A      3.7690 eV  328.96 nm  f=0.1921  <S**2>=0.000
      74 -> 77         0.53241
      75 -> 76         0.20736
      75 -> 77        -0.38047

 Excited State   4:      Singlet-A      3.8381 eV  323.04 nm  f=0.0795  <S**2>=0.000
      74 -> 76         0.27732
      74 -> 77         0.37240
      75 -> 76        -0.16992
      75 -> 77         0.46727

 Excited State   5:      Singlet-A      4.4328 eV  279.70 nm  f=0.0344  <S**2>=0.000
      72 -> 76         0.39342
      72 -> 77        -0.23652
      73 -> 77        -0.22397
      74 -> 79        -0.16408
      75 -> 78        -0.36927
      75 -> 79         0.19979

 Excited State   6:      Singlet-A      4.4423 eV  279.10 nm  f=0.0148  <S**2>=0.000
      72 -> 77        -0.19720
      73 -> 76         0.37380
      73 -> 77         0.25542
      74 -> 78         0.35155
      74 -> 79         0.23049
      75 -> 79         0.19433

 Excited State   7:      Singlet-A      4.6383 eV  267.31 nm  f=0.0095  <S**2>=0.000
      74 -> 78        -0.41914
      74 -> 79         0.22120
      75 -> 78         0.25582
      75 -> 79         0.44520

 Excited State   8:      Singlet-A      4.6406 eV  267.17 nm  f=0.0064  <S**2>=0.000
      74 -> 78        -0.28017
      74 -> 79         0.44370
      75 -> 78        -0.38315
      75 -> 79        -0.26451

 Excited State   9:      Singlet-A      4.6623 eV  265.93 nm  f=0.0073  <S**2>=0.000
      72 -> 76         0.19224
      73 -> 76        -0.46305
      73 -> 77         0.48753

 Excited State  10:      Singlet-A      4.6669 eV  265.67 nm  f=0.0061  <S**2>=0.000
      72 -> 76         0.43849
      72 -> 77         0.51160
      73 -> 76         0.18048

 The electronic state is 1-A.
 Alpha  occ. eigenvalues --  -14.33871 -14.33847 -10.23251 -10.23208 -10.19921
 Alpha  occ. eigenvalues --  -10.19856 -10.19292 -10.19281 -10.19238 -10.19236
 Alpha  occ. eigenvalues --  -10.18974 -10.18959 -10.18911 -10.18882 -10.18859
 Alpha  occ. eigenvalues --  -10.18837 -10.18814 -10.18787 -10.18503 -10.18489
 Alpha  occ. eigenvalues --  -10.18426 -10.18383  -0.92558  -0.91432  -0.86493
 Alpha  occ. eigenvalues --   -0.86090  -0.80856  -0.80560  -0.78796  -0.75471
 Alpha  occ. eigenvalues --   -0.73112  -0.72919  -0.72012  -0.69801  -0.63440
 Alpha  occ. eigenvalues --   -0.61974  -0.60684  -0.60626  -0.60143  -0.57067
 Alpha  occ. eigenvalues --   -0.52683  -0.52588  -0.51697  -0.51471  -0.51157
 Alpha  occ. eigenvalues --   -0.48759  -0.47390  -0.47351  -0.44508  -0.44045
 Alpha  occ. eigenvalues --   -0.43637  -0.42511  -0.42152  -0.42092  -0.41249
 Alpha  occ. eigenvalues --   -0.40439  -0.40430  -0.38959  -0.38947  -0.37987
 Alpha  occ. eigenvalues --   -0.36411  -0.35676  -0.34954  -0.34261  -0.34084
 Alpha  occ. eigenvalues --   -0.33537  -0.31568  -0.29560  -0.29534  -0.27632
 Alpha  occ. eigenvalues --   -0.26942  -0.22750  -0.22739  -0.19614  -0.19579
 Alpha virt. eigenvalues --   -0.03708  -0.03467  -0.00328   0.00063   0.03164
 Alpha virt. eigenvalues --    0.03351   0.09098   0.09562   0.10536   0.10635
 Alpha virt. eigenvalues --    0.10974   0.11362   0.11952   0.12121   0.14792

 Mulliken charges:
               1
     1  N   -0.675981
     2  C    0.267701
     3  C   -0.160528
     4  C   -0.196626
     5  C    0.093292
     6  C   -0.196080
     7  C   -0.112505
     8  C   -0.140058
     9  C   -0.191427
    10  C    0.096192
    11  C   -0.144738
    12  C   -0.059441
    13  C    0.086919
    14  C   -0.130962
    15  C   -0.111794
    16  C   -0.081960
    17  C   -0.149504
    18  C    0.098682
    19  C   -0.141184
    20  C   -0.123151
    21  C    0.292071
    22  N   -0.608800
    23  H    0.273501
    24  H    0.282224
    25  H    0.071501
    26  H    0.068876
    27  H    0.067334
    28  H    0.073820
    29  H    0.065999
    30  H    0.068221
    31  H    0.117339
    32  H    0.109346
    33  H    0.119676
    34  H    0.114117
    35  H    0.119926
    36  H    0.117424
    37  H    0.313342
    38  H    0.307236
 Sum of Mulliken charges =  -0.00000

 Dipole moment (field-independent basis, Debye):
    X=             -8.7466    Y=              5.0293    Z=             -0.2066  Tot=             10.0916
 Quadrupole moment (field-independent basis, Debye-Ang):
   XX=           -122.8381   YY=           -113.9290   ZZ=           -115.7417
   XY=              3.7858   XZ=             -3.7066   YZ=              8.2967

 Summary of Natural Population Analysis:

                                       Natural Population
                Natural  -----------------------------------------------
    Atom  No    Charge         Core      Valence    Rydberg      Total
 -----------------------------------------------------------------------
      N    1   -0.83277      1.99949     5.82184    0.01144     7.83277
      C    2    0.19164      1.99891     3.79151    0.01794     5.80836
      C    3   -0.33547      1.99904     4.32186    0.01457     6.33547
      C    4   -0.27323      1.99907     4.25956    0.01460     6.27323
      C    5   -0.07078      1.99902     4.05726    0.01451     6.07078
      C    6   -0.28884      1.99907     4.27572    0.01406     6.28884
      C    7   -0.25134      1.99911     4.23822    0.01401     6.25134
      C    8   -0.29916      1.99912     4.28486    0.01518     6.29916
      C    9   -0.28684      1.99908     4.27394    0.01383     6.28684
      C   10   -0.03477      1.99898     4.02137    0.01442     6.03477
      C   11   -0.18603      1.99894     4.16956    0.01753     6.18603
      C   12    0.00724      1.99897     3.97636    0.01744     5.99276
      C   13   -0.05629      1.99897     4.04291    0.01441     6.05629
      C   14   -0.19316      1.99908     4.18071    0.01337     6.19316
      C   15   -0.26209      1.99912     4.24835    0.01462     6.26209
      C   16   -0.19376      1.99911     4.18095    0.01371     6.19376
      C   17   -0.22203      1.99907     4.20931    0.01365     6.22203
      C   18   -0.05377      1.99902     4.04062    0.01413     6.05377
      C   19   -0.18756      1.99907     4.17460    0.01390     6.18756
      C   20   -0.29440      1.99905     4.28113    0.01422     6.29440
      C   21    0.22582      1.99889     3.75790    0.01739     5.77418
      N   22   -0.73028      1.99947     5.72102    0.00979     7.73028
      H   23    0.41331      0.00000     0.58408    0.00261     0.58669
      H   24    0.42000      0.00000     0.57765    0.00235     0.58000
      H   25    0.23349      0.00000     0.76501    0.00150     0.76651
      H   26    0.23085      0.00000     0.76759    0.00157     0.76915
      H   27    0.22878      0.00000     0.76960    0.00162     0.77122
      H   28    0.23356      0.00000     0.76504    0.00139     0.76644
      H   29    0.23093      0.00000     0.76769    0.00137     0.76907
      H   30    0.23008      0.00000     0.76832    0.00161     0.76992
      H   31    0.25789      0.00000     0.74059    0.00152     0.74211
      H   32    0.25319      0.00000     0.74553    0.00129     0.74681
      H   33    0.25533      0.00000     0.74343    0.00124     0.74467
      H   34    0.25175      0.00000     0.74671    0.00154     0.74825
      H   35    0.25594      0.00000     0.74257    0.00149     0.74406
      H   36    0.25654      0.00000     0.74205    0.00141     0.74346
      H   37    0.43767      0.00000     0.56035    0.00198     0.56233
      H   38    0.43860      0.00000     0.55886    0.00254     0.56140
 =======================================================================
   * Total *   -0.00000     43.97964   105.67462    0.34574   150.00000

 Normal termination of Gaussian 16 at Wed Jul 17 16:53:27 2024.
