 Gaussian 16, Revision A.03,

 -------------------------------------------------------
 # opt=CalcFc B3LYP/6-31G** SCRF=(Solvent=water) scf=xqc
 -------------------------------------------------------

 ----------------------------------
 JSKXMAPMKXVJKT-UHFFFAOYSA-N_conf_1
 ----------------------------------
 Symbolic Z-matrix:
 Charge =  0 Multiplicity = 1

 SCF Done:  E(RB3LYP) =  -770.607316582     A.U. after   12 cycles
 SCF Done:  E(RB3LYP) =  -770.611655313     A.U. after   10 cycles
 SCF Done:  E(RB3LYP) =  -770.611931673     A.U. after    9 cycles
 SCF Done:  E(RB3LYP) =  -770.611839973     A.U. after   12 cycles
 SCF Done:  E(RB3LYP) =  -770.611955035     A.U. after   10 cycles
 SCF Done:  E(RB3LYP) =  -770.611876515     A.U. after   12 cycles
 SCF Done:  E(RB3LYP) =  -770.611986485     A.U. after    8 cycles
 SCF Done:  E(RB3LYP) =  -770.611992180     A.U. after    8 cycles
 SCF Done:  E(RB3LYP) =  -770.611993771     A.U. after    8 cycles
 SCF Done:  E(RB3LYP) =  -770.611994306     A.U. after    7 cycles
 SCF Done:  E(RB3LYP) =  -770.611994786     A.U. after    7 cycles
 SCF Done:  E(RB3LYP) =  -770.611994826     A.U. after    6 cycles
 SCF Done:  E(RB3LYP) =  -770.611994876     A.U. after    6 cycles
 SCF Done:  E(RB3LYP) =  -770.611994945     A.U. after    6 cycles
 SCF Done:  E(RB3LYP) =  -770.611994971     A.U. after    6 cycles
 Optimization completed on the basis of negligible forces.
    -- Stationary point found.
 Normal termination of Gaussian 16 at Thu Jul 18 04:42:52 2024.

 ----------------------------------------------------------------------
 # freq B3LYP/6-31G** SCRF=(Solvent=water) volume NMR pop=NPA density=c
 urrent Geom=AllCheck Guess=Read
 ----------------------------------------------------------------------

 Structure from the checkpoint file:  "JSKXMAPMKXVJKT-UHFFFAOYSA-N_conf_1_1.chk"
 ----------------------------------
 JSKXMAPMKXVJKT-UHFFFAOYSA-N_conf_1
 ----------------------------------
 Charge =  0 Multiplicity = 1

 SCF Done:  E(RB3LYP) =  -770.611994971     A.U. after    1 cycles

      1  C    Isotropic =   170.9196   Anisotropy =    35.4278

      2  C    Isotropic =    70.1560   Anisotropy =   162.7093

      3  C    Isotropic =    67.5704   Anisotropy =   154.0282

      4  C    Isotropic =    81.9418   Anisotropy =   126.1765

      5  C    Isotropic =    51.2789   Anisotropy =   155.4793

      6  N    Isotropic =   186.5447   Anisotropy =    75.4287

      7  C    Isotropic =   149.3746   Anisotropy =    26.8969

      8  C    Isotropic =   162.2055   Anisotropy =    27.3256

      9  C    Isotropic =   147.8498   Anisotropy =    42.2556

     10  N    Isotropic =   189.7240   Anisotropy =    50.4213

     11  C    Isotropic =    51.8466   Anisotropy =   154.5620

     12  C    Isotropic =    89.5222   Anisotropy =   137.6466

     13  C    Isotropic =    66.7333   Anisotropy =   145.8830

     14  C    Isotropic =    71.1298   Anisotropy =   161.2913

     15  C    Isotropic =   170.9869   Anisotropy =    35.3111

     16  C    Isotropic =    67.2306   Anisotropy =   154.0842

     17  C    Isotropic =    82.6678   Anisotropy =   124.2635

     18  C    Isotropic =    87.5900   Anisotropy =   139.4635

     19  C    Isotropic =    66.8772   Anisotropy =   145.6674

     20  H    Isotropic =    29.4010   Anisotropy =     8.9359

     21  H    Isotropic =    29.4402   Anisotropy =     8.6716

     22  H    Isotropic =    30.0694   Anisotropy =     7.5528

     23  H    Isotropic =    24.5689   Anisotropy =     6.6514

     24  H    Isotropic =    25.1408   Anisotropy =     7.3899

     25  H    Isotropic =    28.5403   Anisotropy =     9.5145

     26  H    Isotropic =    28.8511   Anisotropy =     5.8901

     27  H    Isotropic =    28.5667   Anisotropy =     6.9385

     28  H    Isotropic =    29.6224   Anisotropy =     6.5931

     29  H    Isotropic =    29.9769   Anisotropy =     5.7581

     30  H    Isotropic =    28.3684   Anisotropy =     7.7129

     31  H    Isotropic =    28.7383   Anisotropy =     4.0318

     32  H    Isotropic =    28.0076   Anisotropy =    12.5917

     33  H    Isotropic =    25.2697   Anisotropy =     9.0946

     34  H    Isotropic =    24.7149   Anisotropy =     6.9381

     35  H    Isotropic =    30.0753   Anisotropy =     7.4238

     36  H    Isotropic =    29.4059   Anisotropy =     8.9696

     37  H    Isotropic =    29.4946   Anisotropy =     8.7591

     38  H    Isotropic =    24.5942   Anisotropy =     6.3677

     39  H    Isotropic =    25.2710   Anisotropy =     6.8609

     40  H    Isotropic =    25.2925   Anisotropy =     8.8572

     41  H    Isotropic =    24.6937   Anisotropy =     6.4885

  Exact polarizability: 364.766   4.238 266.094  20.866  13.019 135.505
 Approx polarizability: 384.702   1.585 326.534  23.904  15.416 161.054

                      1                      2                      3
                      A                      A                      A
 Frequencies --     13.8190                15.4926                21.5360
 Red. masses --      1.1008                 3.2940                 1.7421
 Frc consts  --      0.0001                 0.0005                 0.0005
 IR Inten    --      0.0917                 0.1051                 0.1477

                      4                      5                      6
                      A                      A                      A
 Frequencies --     24.6102                30.2580                47.9437
 Red. masses --      1.6323                 3.5278                 4.0452
 Frc consts  --      0.0006                 0.0019                 0.0055
 IR Inten    --      0.2491                 0.3365                 1.2676

                      7                      8                      9
                      A                      A                      A
 Frequencies --     70.5567               100.5142               132.0992
 Red. masses --      4.2630                 3.3966                 3.6786
 Frc consts  --      0.0125                 0.0202                 0.0378
 IR Inten    --      1.1950                 7.4986                 2.9522

                     10                     11                     12
                      A                      A                      A
 Frequencies --    144.0570               169.1374               220.2297
 Red. masses --      3.6044                 3.2885                 2.9923
 Frc consts  --      0.0441                 0.0554                 0.0855
 IR Inten    --      1.6199                 0.9490                 3.5973

                     13                     14                     15
                      A                      A                      A
 Frequencies --    246.4057               278.8143               306.7287
 Red. masses --      2.2301                 2.4789                 2.1047
 Frc consts  --      0.0798                 0.1135                 0.1167
 IR Inten    --      3.3832                27.0576                45.9123

                     16                     17                     18
                      A                      A                      A
 Frequencies --    315.7436               331.7095               337.9766
 Red. masses --      1.6835                 3.3191                 4.0122
 Frc consts  --      0.0989                 0.2152                 0.2700
 IR Inten    --     99.8647                 0.9151                11.5665

                     19                     20                     21
                      A                      A                      A
 Frequencies --    353.7324               389.1866               398.6668
 Red. masses --      2.0818                 3.7998                 1.9342
 Frc consts  --      0.1535                 0.3391                 0.1811
 IR Inten    --     51.6744                 2.1067               127.6386

                     22                     23                     24
                      A                      A                      A
 Frequencies --    422.6908               423.4518               463.7230
 Red. masses --      3.1491                 3.1725                 2.3817
 Frc consts  --      0.3315                 0.3352                 0.3018
 IR Inten    --      0.1278                 0.1103                94.8198

                     25                     26                     27
                      A                      A                      A
 Frequencies --    488.8091               524.9228               527.7095
 Red. masses --      3.3207                 2.4522                 2.4523
 Frc consts  --      0.4675                 0.3981                 0.4024
 IR Inten    --     16.8444                14.8748                13.3726

                     28                     29                     30
                      A                      A                      A
 Frequencies --    557.5228               608.6314               654.4772
 Red. masses --      3.5069                 3.3487                 6.7095
 Frc consts  --      0.6422                 0.7309                 1.6933
 IR Inten    --      3.2106                17.0395                 0.0334

                     31                     32                     33
                      A                      A                      A
 Frequencies --    658.9472               716.1732               717.5885
 Red. masses --      6.2363                 3.1940                 3.2343
 Frc consts  --      1.5954                 0.9652                 0.9812
 IR Inten    --      0.9954                 1.9471                 0.8486

                     34                     35                     36
                      A                      A                      A
 Frequencies --    724.8902               762.3108               791.7471
 Red. masses --      2.0793                 2.5945                 2.3870
 Frc consts  --      0.6437                 0.8883                 0.8816
 IR Inten    --     14.7714                 2.8264                 2.5951

                     37                     38                     39
                      A                      A                      A
 Frequencies --    820.4072               820.8724               825.4517
 Red. masses --      1.5748                 1.5333                 1.3055
 Frc consts  --      0.6245                 0.6087                 0.5241
 IR Inten    --     37.7282                71.6372                 7.4933

                     40                     41                     42
                      A                      A                      A
 Frequencies --    828.2386               841.5817               866.9925
 Red. masses --      1.3539                 4.6293                 3.2445
 Frc consts  --      0.5472                 1.9318                 1.4369
 IR Inten    --     19.2246                 0.6761                 3.3191

                     43                     44                     45
                      A                      A                      A
 Frequencies --    893.0522               941.9207               942.3108
 Red. masses --      2.0578                 1.2460                 1.2603
 Frc consts  --      0.9669                 0.6513                 0.6594
 IR Inten    --      6.0614                 0.2038                 0.2558

                     46                     47                     48
                      A                      A                      A
 Frequencies --    956.1072               956.9417               970.6267
 Red. masses --      1.3117                 1.3076                 2.1441
 Frc consts  --      0.7065                 0.7055                 1.1901
 IR Inten    --      0.0318                 0.0126                 9.9176

                     49                     50                     51
                      A                      A                      A
 Frequencies --   1007.0840              1007.9169              1026.3568
 Red. masses --      1.4477                 1.4502                 2.7130
 Frc consts  --      0.8651                 0.8680                 1.6838
 IR Inten    --      1.8932                21.5230                 0.0734

                     52                     53                     54
                      A                      A                      A
 Frequencies --   1028.1099              1063.1814              1063.2730
 Red. masses --      2.6909                 1.4831                 1.4852
 Frc consts  --      1.6758                 0.9877                 0.9893
 IR Inten    --      0.6625                 7.1147                 5.7115

                     55                     56                     57
                      A                      A                      A
 Frequencies --   1068.2602              1103.9577              1122.3922
 Red. masses --      2.6266                 2.9015                 2.7067
 Frc consts  --      1.7660                 2.0834                 2.0090
 IR Inten    --      6.4702                17.9250                23.9972

                     58                     59                     60
                      A                      A                      A
 Frequencies --   1136.3158              1150.9752              1161.5549
 Red. masses --      1.7754                 1.3261                 1.6277
 Frc consts  --      1.3507                 1.0351                 1.2939
 IR Inten    --      3.2482                13.1734                53.5035

                     61                     62                     63
                      A                      A                      A
 Frequencies --   1209.8513              1210.7403              1231.4357
 Red. masses --      1.1268                 1.1244                 1.3214
 Frc consts  --      0.9718                 0.9712                 1.1806
 IR Inten    --     17.4856                24.5017                 7.6958

                     64                     65                     66
                      A                      A                      A
 Frequencies --   1239.3318              1240.0233              1267.5917
 Red. masses --      2.8725                 2.6706                 1.3353
 Frc consts  --      2.5995                 2.4195                 1.2641
 IR Inten    --      0.2668                 2.3285                 6.8468

                     67                     68                     69
                      A                      A                      A
 Frequencies --   1292.5941              1299.2397              1339.9273
 Red. masses --      2.1297                 2.4337                 1.4904
 Frc consts  --      2.0965                 2.4205                 1.5765
 IR Inten    --     99.2448               295.5905                27.9251

                     70                     71                     72
                      A                      A                      A
 Frequencies --   1344.2858              1346.1192              1349.4955
 Red. masses --      1.3053                 1.4878                 1.6416
 Frc consts  --      1.3897                 1.5884                 1.7614
 IR Inten    --     12.8855                17.4260                26.2426

                     73                     74                     75
                      A                      A                      A
 Frequencies --   1356.8628              1374.9884              1400.3243
 Red. masses --      3.7210                 1.9344                 1.4515
 Frc consts  --      4.0362                 2.1547                 1.6770
 IR Inten    --     53.6595               135.6210                12.5537

                     76                     77                     78
                      A                      A                      A
 Frequencies --   1421.5017              1422.3754              1423.4889
 Red. masses --      1.3331                 1.2549                 1.3421
 Frc consts  --      1.5871                 1.4958                 1.6023
 IR Inten    --     18.3594                 8.2256                 5.1828

                     79                     80                     81
                      A                      A                      A
 Frequencies --   1446.7216              1450.2450              1487.5285
 Red. masses --      2.2899                 2.1838                 1.0953
 Frc consts  --      2.8239                 2.7061                 1.4279
 IR Inten    --     19.3568                 6.4810                 0.3992

                     82                     83                     84
                      A                      A                      A
 Frequencies --   1488.0310              1488.4503              1495.1417
 Red. masses --      1.0440                 1.0456                 1.1385
 Frc consts  --      1.3619                 1.3648                 1.4995
 IR Inten    --      5.6433                 6.4822                45.0221

                     85                     86                     87
                      A                      A                      A
 Frequencies --   1496.5711              1506.4791              1524.2916
 Red. masses --      1.1307                 1.1067                 1.4220
 Frc consts  --      1.4921                 1.4799                 1.9467
 IR Inten    --      8.2086                 8.1492                 9.8090

                     88                     89                     90
                      A                      A                      A
 Frequencies --   1526.7160              1529.0242              1562.0571
 Red. masses --      1.2925                 1.3829                 2.6256
 Frc consts  --      1.7750                 1.9049                 3.7747
 IR Inten    --     98.7761                85.7186               482.9659

                     91                     92                     93
                      A                      A                      A
 Frequencies --   1564.8831              1625.0755              1626.5850
 Red. masses --      2.6892                 4.5427                 4.5841
 Frc consts  --      3.8801                 7.0682                 7.1460
 IR Inten    --    126.4956                 8.7892                 9.1397

                     94                     95                     96
                      A                      A                      A
 Frequencies --   1671.8646              1672.8232              2958.7623
 Red. masses --      5.8709                 5.8670                 1.0726
 Frc consts  --      9.6685                 9.6732                 5.5322
 IR Inten    --    238.9430                25.2664                97.8599

                     97                     98                     99
                      A                      A                      A
 Frequencies --   3008.2552              3029.7160              3030.6871
 Red. masses --      1.0682                 1.0385                 1.0380
 Frc consts  --      5.6953                 5.6164                 5.6172
 IR Inten    --     72.5654                81.7092                78.5729

                    100                    101                    102
                      A                      A                      A
 Frequencies --   3046.6014              3058.5673              3080.8669
 Red. masses --      1.0787                 1.0718                 1.0954
 Frc consts  --      5.8988                 5.9077                 6.1260
 IR Inten    --     20.5481                85.4511                16.1419

                    103                    104                    105
                      A                      A                      A
 Frequencies --   3081.0329              3081.5609              3104.0643
 Red. masses --      1.1003                 1.1010                 1.1033
 Frc consts  --      6.1540                 6.1601                 6.2636
 IR Inten    --     38.5295                37.9480                85.0724

                    106                    107                    108
                      A                      A                      A
 Frequencies --   3116.6684              3117.4026              3161.9320
 Red. masses --      1.1007                 1.1007                 1.0865
 Frc consts  --      6.2996                 6.3022                 6.3999
 IR Inten    --     33.4879                33.1853                28.4941

                    109                    110                    111
                      A                      A                      A
 Frequencies --   3162.5714              3169.2808              3169.4411
 Red. masses --      1.0865                 1.0891                 1.0892
 Frc consts  --      6.4027                 6.4451                 6.4465
 IR Inten    --     27.6049                38.9618                46.8852

                    112                    113                    114
                      A                      A                      A
 Frequencies --   3179.3487              3180.0574              3210.4621
 Red. masses --      1.0946                 1.0946                 1.0913
 Frc consts  --      6.5190                 6.5221                 6.6270
 IR Inten    --     35.3676                34.8844                25.0527

                    115                    116                    117
                      A                      A                      A
 Frequencies --   3212.1670              3608.6902              3637.2241
 Red. masses --      1.0914                 1.0757                 1.0772
 Frc consts  --      6.6350                 8.2539                 8.3961
 IR Inten    --     21.9328                27.7742                43.3627

 - Thermochemistry -
 -------------------
 Temperature   298.150 Kelvin.  Pressure   1.00000 Atm.
 Atom     1 has atomic number  6 and mass  12.00000

 Molecular mass:   254.17830 amu.
 Principal axes and moments of inertia in atomic units:
                           1         2         3
     Eigenvalues --  1236.06558********************
           X            1.00000   0.00119   0.00142
           Y           -0.00120   0.99993   0.01199
           Z           -0.00141  -0.01199   0.99993
 This molecule is an asymmetric top.
 Rotational symmetry number  1.
 Warning -- assumption of classical behavior for rotation
           may cause significant error
 Rotational temperatures (Kelvin)      0.07007     0.00448     0.00432
 Rotational constants (GHZ):           1.46007     0.09343     0.08996
 Zero-point vibrational energy     932696.8 (Joules/Mol)
                                  222.91987 (Kcal/Mol)
 Warning -- explicit consideration of  29 degrees of freedom as
           vibrations may cause significant error
 Vibrational temperatures:     19.88    22.29    30.99    35.41    43.53
          (Kelvin)             68.98   101.52   144.62   190.06   207.27
                              243.35   316.86   354.52   401.15   441.31
                              454.28   477.26   486.27   508.94   559.95
                              573.59   608.16   609.25   667.19   703.29
                              755.25   759.26   802.15   875.68   941.65
                              948.08  1030.41  1032.45  1042.96  1096.80
                             1139.15  1180.38  1181.05  1187.64  1191.65
                             1210.85  1247.41  1284.90  1355.21  1355.78
                             1375.63  1376.83  1396.52  1448.97  1450.17
                             1476.70  1479.22  1529.68  1529.81  1536.99
                             1588.35  1614.87  1634.91  1656.00  1671.22
                             1740.71  1741.99  1771.76  1783.12  1784.12
                             1823.78  1859.75  1869.32  1927.86  1934.13
                             1936.77  1941.62  1952.22  1978.30  2014.75
                             2045.22  2046.48  2048.08  2081.51  2086.58
                             2140.22  2140.94  2141.55  2151.18  2153.23
                             2167.49  2193.12  2196.60  2199.92  2247.45
                             2251.52  2338.12  2340.29  2405.44  2406.82
                             4257.00  4328.21  4359.09  4360.48  4383.38
                             4400.60  4432.68  4432.92  4433.68  4466.06
                             4484.19  4485.25  4549.31  4550.23  4559.89
                             4560.12  4574.37  4575.39  4619.14  4621.59
                             5192.10  5233.15

 Zero-point correction=                           0.355245 (Hartree/Particle)
 Thermal correction to Energy=                    0.374744
 Thermal correction to Enthalpy=                  0.375688
 Thermal correction to Gibbs Free Energy=         0.302099
 Sum of electronic and zero-point Energies=           -770.256750
 Sum of electronic and thermal Energies=              -770.237251
 Sum of electronic and thermal Enthalpies=            -770.236307
 Sum of electronic and thermal Free Energies=         -770.309896

                     E (Thermal)             CV                S
                      KCal/Mol        Cal/Mol-Kelvin    Cal/Mol-Kelvin
 Total                  235.155             72.958            154.880
 Electronic               0.000              0.000              0.000
 Translational            0.889              2.981             42.499
 Rotational               0.889              2.981             34.526
 Vibrational            233.378             66.996             77.856
 Vibration     1          0.593              1.986              7.368
 Vibration     2          0.593              1.986              7.141
 Vibration     3          0.593              1.985              6.487
 Vibration     4          0.593              1.985              6.222
 Vibration     5          0.594              1.984              5.812
 Vibration     6          0.595              1.978              4.900
 Vibration     7          0.598              1.968              4.138
 Vibration     8          0.604              1.949              3.444
 Vibration     9          0.612              1.921              2.915
 Vibration    10          0.616              1.909              2.749
 Vibration    11          0.625              1.880              2.445
 Vibration    12          0.647              1.810              1.957
 Vibration    13          0.661              1.769              1.756
 Vibration    14          0.679              1.713              1.541
 Vibration    15          0.697              1.661              1.380
 Vibration    16          0.703              1.644              1.332
 Vibration    17          0.714              1.612              1.252
 Vibration    18          0.718              1.600              1.222
 Vibration    19          0.730              1.568              1.150
 Vibration    20          0.757              1.493              1.003
 Vibration    21          0.765              1.473              0.968
 Vibration    22          0.785              1.421              0.883
 Vibration    23          0.786              1.419              0.880
 Vibration    24          0.821              1.331              0.755
 Vibration    25          0.845              1.275              0.687
 Vibration    26          0.880              1.195              0.599
 Vibration    27          0.883              1.189              0.592
 Vibration    28          0.913              1.123              0.529
 Vibration    29          0.968              1.014              0.435

 Optimization completed on the basis of negligible forces.
    -- Stationary point found.
 Normal termination of Gaussian 16 at Thu Jul 18 05:09:35 2024.
 Gaussian 16:  ES64L-G16RevA.03 25-Dec-2016

 ----------------------------------------------------------------------
 # TD(NStates=10, Root=1) B3LYP/6-31G** SCRF=(Solvent=water) volume pop
 =NPA density=current Geom=AllCheck Guess=Read
 ----------------------------------------------------------------------

 Structure from the checkpoint file:  "JSKXMAPMKXVJKT-UHFFFAOYSA-N_conf_1_2.chk"
 ----------------------------------
 JSKXMAPMKXVJKT-UHFFFAOYSA-N_conf_1
 ----------------------------------
 Charge =  0 Multiplicity = 1

                         Standard orientation:
 ---------------------------------------------------------------------
 Center     Atomic      Atomic             Coordinates (Angstroms)
 Number     Number       Type             X           Y           Z
 ---------------------------------------------------------------------
      1          6           0       -7.494678    0.785737   -0.698484
      2          6           0       -6.064544    0.425744   -0.368619
      3          6           0       -5.565560   -0.865746   -0.611238
      4          6           0       -4.254638   -1.210821   -0.308757
      5          6           0       -3.367612   -0.268937    0.256508
      6          7           0       -2.073773   -0.657773    0.593038
      7          6           0       -1.035180    0.325459    0.878862
      8          6           0        0.327641   -0.335154    1.101702
      9          6           0        0.960767   -0.919346   -0.174991
     10          7           0        2.292248   -1.462334    0.051729
     11          6           0        3.456951   -0.716923   -0.069209
     12          6           0        3.463496    0.688814   -0.138605
     13          6           0        4.669253    1.388331   -0.236750
     14          6           0        5.906952    0.739248   -0.268215
     15          6           0        7.206412    1.504817   -0.362938
     16          6           0        5.891607   -0.664188   -0.199016
     17          6           0        4.704445   -1.378820   -0.101607
     18          6           0       -3.855914    1.028246    0.494773
     19          6           0       -5.180270    1.354086    0.187746
     20          1           0       -8.207560    0.182034   -0.123777
     21          1           0       -7.720576    0.618302   -1.758322
     22          1           0       -7.699409    1.837246   -0.477844
     23          1           0       -6.218847   -1.617907   -1.048291
     24          1           0       -3.901299   -2.220321   -0.506048
     25          1           0       -1.753841   -1.472259    0.086398
     26          1           0       -0.955029    1.078042    0.074833
     27          1           0       -1.312851    0.872050    1.787965
     28          1           0        1.005194    0.417741    1.517561
     29          1           0        0.235585   -1.126814    1.854519
     30          1           0        0.344783   -1.734844   -0.566463
     31          1           0        0.985723   -0.147764   -0.958513
     32          1           0        2.398268   -2.446728   -0.142324
     33          1           0        2.533075    1.245161   -0.115367
     34          1           0        4.636533    2.474302   -0.290156
     35          1           0        7.026524    2.572985   -0.514983
     36          1           0        7.808287    1.398654    0.548196
     37          1           0        7.825980    1.149514   -1.194583
     38          1           0        6.831698   -1.211123   -0.225538
     39          1           0        4.729374   -2.465050   -0.052440
     40          1           0       -3.209456    1.788003    0.919528
     41          1           0       -5.526259    2.366247    0.385313
 ---------------------------------------------------------------------

 SCF Done:  E(RB3LYP) =  -770.611994971     A.U. after    1 cycles

 Excitation energies and oscillator strengths:

 Excited State   1:      Singlet-A      4.4866 eV  276.34 nm  f=0.0804  <S**2>=0.000
      67 -> 73         0.16151
      69 -> 70         0.68297
 This state for optimization and/or second-order correction.
 Total Energy, E(TD-HF/TD-DFT) =  -770.447113681
 Copying the excited state density for this state as the 1-particle RhoCI density.

 Excited State   2:      Singlet-A      4.5525 eV  272.34 nm  f=0.0799  <S**2>=0.000
      66 -> 72        -0.17132
      68 -> 71         0.67638
      69 -> 71         0.10114

 Excited State   3:      Singlet-A      4.8696 eV  254.61 nm  f=0.0002  <S**2>=0.000
      68 -> 71        -0.10275
      69 -> 71         0.69829

 Excited State   4:      Singlet-A      4.9167 eV  252.17 nm  f=0.0001  <S**2>=0.000
      68 -> 70         0.70179

 Excited State   5:      Singlet-A      5.2478 eV  236.26 nm  f=1.1241  <S**2>=0.000
      68 -> 72        -0.38674
      69 -> 73         0.57420

 Excited State   6:      Singlet-A      5.2824 eV  234.71 nm  f=0.0888  <S**2>=0.000
      68 -> 72         0.39060
      69 -> 72         0.50463
      69 -> 73         0.28185

 Excited State   7:      Singlet-A      5.3051 eV  233.71 nm  f=0.0603  <S**2>=0.000
      68 -> 72        -0.42213
      69 -> 72         0.49374
      69 -> 73        -0.26281

 Excited State   8:      Singlet-A      5.4074 eV  229.29 nm  f=0.0016  <S**2>=0.000
      68 -> 73         0.70546

 Excited State   9:      Singlet-A      6.3780 eV  194.39 nm  f=0.0109  <S**2>=0.000
      67 -> 73         0.19585
      69 -> 74         0.63644
      69 -> 77         0.13252

 Excited State  10:      Singlet-A      6.4238 eV  193.01 nm  f=0.0987  <S**2>=0.000
      64 -> 71        -0.18967
      65 -> 71         0.26533
      66 -> 72         0.52803
      68 -> 71         0.12303
      68 -> 74         0.27902

 The electronic state is 1-A.
 Alpha  occ. eigenvalues --  -14.34059 -14.33917 -10.22439 -10.22258 -10.21935
 Alpha  occ. eigenvalues --  -10.21623 -10.18552 -10.18335 -10.18251 -10.18220
 Alpha  occ. eigenvalues --  -10.18194 -10.18173 -10.18159 -10.18014 -10.17955
 Alpha  occ. eigenvalues --  -10.17774 -10.17768 -10.17671 -10.17647  -0.93154
 Alpha  occ. eigenvalues --   -0.92653  -0.84091  -0.83788  -0.78316  -0.75667
 Alpha  occ. eigenvalues --   -0.74078  -0.73765  -0.73527  -0.69220  -0.66741
 Alpha  occ. eigenvalues --   -0.65247  -0.61473  -0.60171  -0.58866  -0.57332
 Alpha  occ. eigenvalues --   -0.56774  -0.52736  -0.52039  -0.49351  -0.48031
 Alpha  occ. eigenvalues --   -0.45904  -0.45642  -0.44965  -0.43867  -0.43438
 Alpha  occ. eigenvalues --   -0.42668  -0.42247  -0.41160  -0.41050  -0.41016
 Alpha  occ. eigenvalues --   -0.40959  -0.40223  -0.38549  -0.37628  -0.37367
 Alpha  occ. eigenvalues --   -0.36742  -0.35541  -0.35055  -0.34576  -0.34281
 Alpha  occ. eigenvalues --   -0.33955  -0.32735  -0.32657  -0.28483  -0.28180
 Alpha  occ. eigenvalues --   -0.24561  -0.24543  -0.19114  -0.18869
 Alpha virt. eigenvalues --    0.00265   0.00307   0.01944   0.02114   0.07884
 Alpha virt. eigenvalues --    0.09114   0.10475   0.10682   0.11201   0.12643
 Alpha virt. eigenvalues --    0.13298   0.13438   0.14230   0.14641   0.15226

 Mulliken charges:
               1
     1  C   -0.384605
     2  C    0.107498
     3  C   -0.142322
     4  C   -0.147498
     5  C    0.306111
     6  N   -0.613497
     7  C   -0.026209
     8  C   -0.209539
     9  C   -0.069405
    10  N   -0.503608
    11  C    0.298001
    12  C   -0.159695
    13  C   -0.214395
    14  C    0.152321
    15  C   -0.388942
    16  C   -0.204518
    17  C   -0.183379
    18  C   -0.140782
    19  C   -0.157994
    20  H    0.120495
    21  H    0.119797
    22  H    0.112996
    23  H    0.087661
    24  H    0.091452
    25  H    0.269313
    26  H    0.106490
    27  H    0.123991
    28  H    0.122787
    29  H    0.124693
    30  H    0.140505
    31  H    0.146882
    32  H    0.312726
    33  H    0.075171
    34  H    0.059974
    35  H    0.115184
    36  H    0.128936
    37  H    0.123893
    38  H    0.054043
    39  H    0.065381
    40  H    0.093209
    41  H    0.086878
 Sum of Mulliken charges =   0.00000

 Dipole moment (field-independent basis, Debye):
    X=             -2.9079    Y=             -2.6415    Z=             -0.6721  Tot=              3.9856
 Quadrupole moment (field-independent basis, Debye-Ang):
   XX=           -140.0989   YY=           -101.7704   ZZ=           -119.7278
   XY=             -2.1045   XZ=              3.2255   YZ=              3.8949

 Summary of Natural Population Analysis:

                                       Natural Population
                Natural  -----------------------------------------------
    Atom  No    Charge         Core      Valence    Rydberg      Total
 -----------------------------------------------------------------------
      C    1   -0.69994      1.99940     4.69367    0.00687     6.69994
      C    2   -0.07616      1.99902     4.06302    0.01412     6.07616
      C    3   -0.22753      1.99905     4.21581    0.01268     6.22753
      C    4   -0.28172      1.99906     4.26996    0.01270     6.28172
      C    5    0.16529      1.99902     3.81796    0.01774     5.83471
      N    6   -0.65104      1.99941     5.63932    0.01231     7.65104
      C    7   -0.26993      1.99933     4.25590    0.01470     6.26993
      C    8   -0.48307      1.99931     4.47188    0.01188     6.48307
      C    9   -0.28761      1.99931     4.27219    0.01611     6.28761
      N   10   -0.44057      1.99939     5.42998    0.01120     7.44057
      C   11    0.17017      1.99899     3.81140    0.01944     5.82983
      C   12   -0.35803      1.99907     4.33955    0.01941     6.35803
      C   13   -0.34201      1.99907     4.32392    0.01902     6.34201
      C   14    0.04998      1.99903     3.93592    0.01506     5.95002
      C   15   -0.70927      1.99939     4.70265    0.00722     6.70927
      C   16   -0.36065      1.99907     4.34246    0.01912     6.36065
      C   17   -0.35451      1.99908     4.33528    0.02015     6.35451
      C   18   -0.30648      1.99906     4.29539    0.01203     6.30648
      C   19   -0.22675      1.99905     4.21489    0.01280     6.22675
      H   20    0.24408      0.00000     0.75442    0.00150     0.75592
      H   21    0.24390      0.00000     0.75462    0.00148     0.75610
      H   22    0.24141      0.00000     0.75731    0.00129     0.75859
      H   23    0.24110      0.00000     0.75734    0.00156     0.75890
      H   24    0.24117      0.00000     0.75727    0.00156     0.75883
      H   25    0.41345      0.00000     0.58346    0.00309     0.58655
      H   26    0.22063      0.00000     0.77605    0.00331     0.77937
      H   27    0.24575      0.00000     0.75216    0.00209     0.75425
      H   28    0.25614      0.00000     0.74039    0.00347     0.74386
      H   29    0.25063      0.00000     0.74662    0.00275     0.74937
      H   30    0.25540      0.00000     0.74305    0.00155     0.74460
      H   31    0.25366      0.00000     0.74314    0.00319     0.74634
      H   32    0.44565      0.00000     0.55090    0.00345     0.55435
      H   33    0.22986      0.00000     0.76820    0.00193     0.77014
      H   34    0.22668      0.00000     0.77166    0.00167     0.77332
      H   35    0.24241      0.00000     0.75619    0.00140     0.75759
      H   36    0.25285      0.00000     0.74526    0.00190     0.74715
      H   37    0.24963      0.00000     0.74815    0.00222     0.75037
      H   38    0.22499      0.00000     0.77338    0.00163     0.77501
      H   39    0.22645      0.00000     0.77167    0.00189     0.77355
      H   40    0.24396      0.00000     0.75461    0.00143     0.75604
      H   41    0.24003      0.00000     0.75840    0.00156     0.75997
 =======================================================================
   * Total *    0.00000     37.98410    99.69542    0.32048   138.00000

 Normal termination of Gaussian 16 at Thu Jul 18 05:36:08 2024.
