 Gaussian 16, Revision A.03,

 -------------------------------------------------------
 # opt=CalcFc B3LYP/6-31G** SCRF=(Solvent=water) scf=xqc
 -------------------------------------------------------

 ----------------------------------
 JSKXMAPMKXVJKT-UHFFFAOYSA-N_conf_2
 ----------------------------------
 Symbolic Z-matrix:
 Charge =  0 Multiplicity = 1

 SCF Done:  E(RB3LYP) =  -770.606436962     A.U. after   12 cycles
 SCF Done:  E(RB3LYP) =  -770.611770236     A.U. after   10 cycles
 SCF Done:  E(RB3LYP) =  -770.612161451     A.U. after   12 cycles
 SCF Done:  E(RB3LYP) =  -770.610602785     A.U. after   12 cycles
 SCF Done:  E(RB3LYP) =  -770.612356784     A.U. after   10 cycles
 SCF Done:  E(RB3LYP) =  -770.612462416     A.U. after   10 cycles
 SCF Done:  E(RB3LYP) =  -770.612491029     A.U. after    9 cycles
 SCF Done:  E(RB3LYP) =  -770.612478891     A.U. after    9 cycles
 SCF Done:  E(RB3LYP) =  -770.612504455     A.U. after    9 cycles
 SCF Done:  E(RB3LYP) =  -770.612485579     A.U. after    9 cycles
 SCF Done:  E(RB3LYP) =  -770.612516217     A.U. after    5 cycles
 SCF Done:  E(RB3LYP) =  -770.612516291     A.U. after    6 cycles
 SCF Done:  E(RB3LYP) =  -770.612516415     A.U. after    6 cycles
 SCF Done:  E(RB3LYP) =  -770.612516599     A.U. after    6 cycles
 SCF Done:  E(RB3LYP) =  -770.612516591     A.U. after    6 cycles
 SCF Done:  E(RB3LYP) =  -770.612516596     A.U. after    7 cycles
 SCF Done:  E(RB3LYP) =  -770.612516660     A.U. after    6 cycles
 SCF Done:  E(RB3LYP) =  -770.612516605     A.U. after    6 cycles
 Optimization completed on the basis of negligible forces.
    -- Stationary point found.
 Normal termination of Gaussian 16 at Thu Jul 18 05:36:57 2024.

 ----------------------------------------------------------------------
 # freq B3LYP/6-31G** SCRF=(Solvent=water) volume NMR pop=NPA density=c
 urrent Geom=AllCheck Guess=Read
 ----------------------------------------------------------------------

 Structure from the checkpoint file:  "JSKXMAPMKXVJKT-UHFFFAOYSA-N_conf_2_1.chk"
 ----------------------------------
 JSKXMAPMKXVJKT-UHFFFAOYSA-N_conf_2
 ----------------------------------
 Charge =  0 Multiplicity = 1

 SCF Done:  E(RB3LYP) =  -770.612516605     A.U. after    1 cycles

      1  C    Isotropic =   171.0712   Anisotropy =    35.6041

      2  C    Isotropic =    70.7745   Anisotropy =   161.9997

      3  C    Isotropic =    67.4298   Anisotropy =   155.2670

      4  C    Isotropic =    80.7062   Anisotropy =   128.3865

      5  C    Isotropic =    51.6916   Anisotropy =   157.6230

      6  N    Isotropic =   180.0435   Anisotropy =    38.6879

      7  C    Isotropic =   146.8805   Anisotropy =    27.8564

      8  C    Isotropic =   164.0183   Anisotropy =    14.2249

      9  C    Isotropic =   143.6920   Anisotropy =    28.1911

     10  N    Isotropic =   189.9950   Anisotropy =    51.0678

     11  C    Isotropic =    51.0768   Anisotropy =   157.2294

     12  C    Isotropic =    81.5293   Anisotropy =   127.9726

     13  C    Isotropic =    67.4105   Anisotropy =   154.9092

     14  C    Isotropic =    69.5532   Anisotropy =   165.0705

     15  C    Isotropic =   170.9747   Anisotropy =    35.4553

     16  C    Isotropic =    66.9372   Anisotropy =   147.7841

     17  C    Isotropic =    87.6847   Anisotropy =   142.2092

     18  C    Isotropic =    87.7145   Anisotropy =   143.7986

     19  C    Isotropic =    67.0475   Anisotropy =   145.7048

     20  H    Isotropic =    30.1553   Anisotropy =     7.7464

     21  H    Isotropic =    29.5593   Anisotropy =     8.1589

     22  H    Isotropic =    29.5079   Anisotropy =     9.2921

     23  H    Isotropic =    24.8437   Anisotropy =     6.8374

     24  H    Isotropic =    25.5472   Anisotropy =     6.0744

     25  H    Isotropic =    27.2489   Anisotropy =    10.8248

     26  H    Isotropic =    28.6745   Anisotropy =     7.9279

     27  H    Isotropic =    28.1176   Anisotropy =     7.5097

     28  H    Isotropic =    30.6718   Anisotropy =     9.6375

     29  H    Isotropic =    29.5433   Anisotropy =     3.5256

     30  H    Isotropic =    28.4193   Anisotropy =     6.6150

     31  H    Isotropic =    28.5691   Anisotropy =     8.3356

     32  H    Isotropic =    27.9619   Anisotropy =    11.8206

     33  H    Isotropic =    25.0818   Anisotropy =     6.8322

     34  H    Isotropic =    24.5615   Anisotropy =     6.0981

     35  H    Isotropic =    29.4255   Anisotropy =     8.4950

     36  H    Isotropic =    29.5213   Anisotropy =     9.1817

     37  H    Isotropic =    30.1169   Anisotropy =     7.4344

     38  H    Isotropic =    24.8612   Anisotropy =     6.3847

     39  H    Isotropic =    25.2846   Anisotropy =     7.5785

     40  H    Isotropic =    25.1959   Anisotropy =     8.5455

     41  H    Isotropic =    24.7801   Anisotropy =     5.9086

  Exact polarizability: 206.737  11.544 324.334  49.264   0.376 228.960
 Approx polarizability: 228.909  15.412 364.060  62.944  -5.162 282.600

                      1                      2                      3
                      A                      A                      A
 Frequencies --     13.8521                19.5715                24.7059
 Red. masses --      4.6408                 1.0470                 1.2168
 Frc consts  --      0.0005                 0.0002                 0.0004
 IR Inten    --      0.0120                 0.1548                 0.1630

                      4                      5                      6
                      A                      A                      A
 Frequencies --     26.5516                37.8460                43.4956
 Red. masses --      2.4174                 3.5902                 4.2631
 Frc consts  --      0.0010                 0.0030                 0.0048
 IR Inten    --      0.3265                 0.1205                 0.7016

                      7                      8                      9
                      A                      A                      A
 Frequencies --     69.0276                97.5228               134.9956
 Red. masses --      3.8009                 3.9014                 3.6432
 Frc consts  --      0.0107                 0.0219                 0.0391
 IR Inten    --      0.7979                 1.2762                 6.6740

                     10                     11                     12
                      A                      A                      A
 Frequencies --    157.0911               189.8476               232.5969
 Red. masses --      3.0602                 3.9729                 2.5104
 Frc consts  --      0.0445                 0.0844                 0.0800
 IR Inten    --      1.8652                 6.3651                 0.1073

                     13                     14                     15
                      A                      A                      A
 Frequencies --    270.6996               296.7165               323.7928
 Red. masses --      3.2623                 3.0420                 3.2859
 Frc consts  --      0.1408                 0.1578                 0.2030
 IR Inten    --      9.0597                 4.4239                 0.9898

                     16                     17                     18
                      A                      A                      A
 Frequencies --    341.5207               351.5361               378.7154
 Red. masses --      3.1438                 2.3714                 2.4410
 Frc consts  --      0.2160                 0.1727                 0.2063
 IR Inten    --      2.5442                11.1909                 4.7728

                     19                     20                     21
                      A                      A                      A
 Frequencies --    420.2160               420.3213               423.6935
 Red. masses --      3.1238                 2.7814                 2.6202
 Frc consts  --      0.3250                 0.2895                 0.2771
 IR Inten    --      0.3587                15.2021                34.9528

                     22                     23                     24
                      A                      A                      A
 Frequencies --    433.5139               456.4423               482.6094
 Red. masses --      2.9124                 2.4891                 1.8617
 Frc consts  --      0.3225                 0.3055                 0.2555
 IR Inten    --     96.4744                90.6649                14.1879

                     25                     26                     27
                      A                      A                      A
 Frequencies --    501.1471               529.9727               547.9563
 Red. masses --      2.3931                 2.5188                 2.6914
 Frc consts  --      0.3541                 0.4168                 0.4761
 IR Inten    --     64.6597                10.5076                20.3583

                     28                     29                     30
                      A                      A                      A
 Frequencies --    590.6295               633.7684               655.0043
 Red. masses --      2.5787                 1.8794                 5.9635
 Frc consts  --      0.5300                 0.4448                 1.5074
 IR Inten    --    131.3330               130.3055                 3.5156

                     31                     32                     33
                      A                      A                      A
 Frequencies --    655.3981               717.2562               717.5729
 Red. masses --      6.6381                 3.2275                 3.2964
 Frc consts  --      1.6800                 0.9783                 1.0001
 IR Inten    --      2.3986                 1.8973                 1.8823

                     34                     35                     36
                      A                      A                      A
 Frequencies --    735.8831               750.6381               817.4922
 Red. masses --      2.7416                 2.7557                 3.0264
 Frc consts  --      0.8747                 0.9149                 1.1916
 IR Inten    --      4.4782                20.6561                15.6483

                     37                     38                     39
                      A                      A                      A
 Frequencies --    821.1650               823.8415               827.0486
 Red. masses --      1.5064                 1.6118                 1.4215
 Frc consts  --      0.5985                 0.6446                 0.5729
 IR Inten    --     46.9189                67.3607                30.4510

                     40                     41                     42
                      A                      A                      A
 Frequencies --    829.1695               834.8270               844.3013
 Red. masses --      1.3172                 3.6224                 3.4911
 Frc consts  --      0.5336                 1.4874                 1.4662
 IR Inten    --      3.2955                11.2614                 5.9653

                     43                     44                     45
                      A                      A                      A
 Frequencies --    906.4996               941.5422               943.6671
 Red. masses --      1.7906                 1.2669                 1.2484
 Frc consts  --      0.8669                 0.6617                 0.6550
 IR Inten    --      4.6493                 0.9189                 0.6292

                     46                     47                     48
                      A                      A                      A
 Frequencies --    952.8811               955.5671               957.4551
 Red. masses --      2.2311                 1.3416                 1.3244
 Frc consts  --      1.1936                 0.7218                 0.7153
 IR Inten    --     21.2936                 1.5192                 0.3400

                     49                     50                     51
                      A                      A                      A
 Frequencies --    986.3464              1007.2411              1010.3995
 Red. masses --      2.1564                 1.4479                 1.4710
 Frc consts  --      1.2361                 0.8655                 0.8848
 IR Inten    --     13.3491                19.8937                 2.9187

                     52                     53                     54
                      A                      A                      A
 Frequencies --   1026.7550              1028.2740              1063.1021
 Red. masses --      2.7478                 2.7390                 1.4840
 Frc consts  --      1.7067                 1.7063                 0.9882
 IR Inten    --      0.3697                 0.2620                 5.6568

                     55                     56                     57
                      A                      A                      A
 Frequencies --   1063.3477              1097.5537              1108.8316
 Red. masses --      1.4876                 2.4537                 3.2812
 Frc consts  --      0.9911                 1.7415                 2.3769
 IR Inten    --      7.7856                40.8747                16.3996

                     58                     59                     60
                      A                      A                      A
 Frequencies --   1129.6995              1151.7185              1162.3215
 Red. masses --      1.9503                 1.2994                 1.5134
 Frc consts  --      1.4665                 1.0155                 1.2047
 IR Inten    --      6.0484                 5.3614                50.5577

                     61                     62                     63
                      A                      A                      A
 Frequencies --   1210.4275              1211.0026              1226.8678
 Red. masses --      1.1254                 1.1296                 1.2402
 Frc consts  --      0.9715                 0.9760                 1.0998
 IR Inten    --     11.8401                27.1487                 9.4840

                     64                     65                     66
                      A                      A                      A
 Frequencies --   1239.2901              1239.6393              1263.5859
 Red. masses --      3.0345                 2.9260                 1.2706
 Frc consts  --      2.7459                 2.6492                 1.1953
 IR Inten    --      0.0717                 0.3429                30.8368

                     67                     68                     69
                      A                      A                      A
 Frequencies --   1289.0297              1293.5148              1312.0708
 Red. masses --      2.6212                 2.8025                 1.3852
 Frc consts  --      2.5661                 2.7627                 1.4051
 IR Inten    --     96.5052               219.9171                37.0361

                     70                     71                     72
                      A                      A                      A
 Frequencies --   1345.9081              1346.4703              1358.1642
 Red. masses --      1.4710                 1.5057                 3.4539
 Frc consts  --      1.5700                 1.6084                 3.7537
 IR Inten    --      6.6832                 3.8296                61.3858

                     73                     74                     75
                      A                      A                      A
 Frequencies --   1367.2332              1385.7405              1401.1824
 Red. masses --      2.3089                 1.3862                 1.3126
 Frc consts  --      2.5430                 1.5683                 1.5184
 IR Inten    --    125.6751                 5.8323                10.7535

                     76                     77                     78
                      A                      A                      A
 Frequencies --   1413.3576              1422.3509              1422.5975
 Red. masses --      1.3916                 1.2547                 1.2558
 Frc consts  --      1.6378                 1.4956                 1.4974
 IR Inten    --     34.2773                 4.9169                 1.5880

                     79                     80                     81
                      A                      A                      A
 Frequencies --   1446.5702              1450.5909              1481.7098
 Red. masses --      2.1240                 2.3594                 1.0962
 Frc consts  --      2.6187                 2.9251                 1.4180
 IR Inten    --      3.3717                 8.1063                 7.6220

                     82                     83                     84
                      A                      A                      A
 Frequencies --   1488.1033              1488.4849              1493.8744
 Red. masses --      1.0438                 1.0471                 1.1457
 Frc consts  --      1.3619                 1.3669                 1.5064
 IR Inten    --      5.6954                 6.8133                13.5653

                     85                     86                     87
                      A                      A                      A
 Frequencies --   1498.5845              1499.7044              1508.2975
 Red. masses --      1.1115                 1.1038                 1.0973
 Frc consts  --      1.4707                 1.4627                 1.4707
 IR Inten    --      7.4397                 8.3855                 9.3363

                     88                     89                     90
                      A                      A                      A
 Frequencies --   1522.3076              1536.6391              1557.2186
 Red. masses --      1.4906                 1.5208                 2.6320
 Frc consts  --      2.0352                 2.1158                 3.7604
 IR Inten    --     23.1578                42.5854               144.8798

                     91                     92                     93
                      A                      A                      A
 Frequencies --   1563.4025              1626.6233              1627.6886
 Red. masses --      2.5730                 4.2552                 4.7069
 Frc consts  --      3.7054                 6.6335                 7.3473
 IR Inten    --    414.1616                 6.4931                 7.8660

                     94                     95                     96
                      A                      A                      A
 Frequencies --   1670.0120              1672.5618              3005.9170
 Red. masses --      5.8680                 5.8764                 1.0683
 Frc consts  --      9.6423                 9.6856                 5.6870
 IR Inten    --     59.1037               160.7004                82.7051

                     97                     98                     99
                      A                      A                      A
 Frequencies --   3030.1375              3031.0910              3041.2440
 Red. masses --      1.0380                 1.0386                 1.0636
 Frc consts  --      5.6151                 5.6221                 5.7962
 IR Inten    --     81.8739                76.8771                48.2152

                    100                    101                    102
                      A                      A                      A
 Frequencies --   3045.2280              3078.4838              3080.7019
 Red. masses --      1.0675                 1.0974                 1.1011
 Frc consts  --      5.8323                 6.1278                 6.1569
 IR Inten    --     81.0594                 8.3971                38.5166

                    103                    104                    105
                      A                      A                      A
 Frequencies --   3083.4430              3095.2287              3101.5172
 Red. masses --      1.1000                 1.0977                 1.0989
 Frc consts  --      6.1619                 6.1962                 6.2280
 IR Inten    --     37.1412               111.4807                47.6294

                    106                    107                    108
                      A                      A                      A
 Frequencies --   3116.7843              3118.0579              3162.1598
 Red. masses --      1.1006                 1.1010                 1.0865
 Frc consts  --      6.2992                 6.3069                 6.4007
 IR Inten    --     33.6338                32.5583                27.5463

                    109                    110                    111
                      A                      A                      A
 Frequencies --   3163.2711              3168.2711              3171.1698
 Red. masses --      1.0866                 1.0890                 1.0893
 Frc consts  --      6.4059                 6.4404                 6.4543
 IR Inten    --     26.8022                42.8503                41.1483

                    112                    113                    114
                      A                      A                      A
 Frequencies --   3179.9043              3180.4458              3208.4332
 Red. masses --      1.0944                 1.0946                 1.0911
 Frc consts  --      6.5202                 6.5238                 6.6179
 IR Inten    --     32.8740                34.9107                26.4151

                    115                    116                    117
                      A                      A                      A
 Frequencies --   3215.7074              3561.4686              3608.2732
 Red. masses --      1.0912                 1.0748                 1.0767
 Frc consts  --      6.6482                 8.0322                 8.2592
 IR Inten    --     20.9697                94.6674                35.8676

 - Thermochemistry -
 -------------------
 Temperature   298.150 Kelvin.  Pressure   1.00000 Atm.
 Atom     1 has atomic number  6 and mass  12.00000

 Molecular mass:   254.17830 amu.
 Principal axes and moments of inertia in atomic units:
                           1         2         3
     Eigenvalues --  4178.495207139.233769953.90018
           X            0.99998   0.00098   0.00596
           Y           -0.00099   0.99999   0.00313
           Z           -0.00596  -0.00314   0.99998
 This molecule is an asymmetric top.
 Rotational symmetry number  1.
 Warning -- assumption of classical behavior for rotation
           may cause significant error
 Rotational temperatures (Kelvin)      0.02073     0.01213     0.00870
 Rotational constants (GHZ):           0.43191     0.25279     0.18131
 Zero-point vibrational energy     934887.0 (Joules/Mol)
                                  223.44336 (Kcal/Mol)
 Warning -- explicit consideration of  28 degrees of freedom as
           vibrations may cause significant error
 Vibrational temperatures:     19.93    28.16    35.55    38.20    54.45
          (Kelvin)             62.58    99.32   140.31   194.23   226.02
                              273.15   334.65   389.48   426.91   465.87
                              491.37   505.78   544.89   604.60   604.75
                              609.60   623.73   656.72   694.37   721.04
                              762.51   788.39   849.78   911.85   942.41
                              942.97  1031.97  1032.43  1058.77  1080.00
                             1176.19  1181.47  1185.32  1189.94  1192.99
                             1201.13  1214.76  1304.25  1354.67  1357.73
                             1370.98  1374.85  1377.56  1419.13  1449.20
                             1453.74  1477.27  1479.46  1529.57  1529.92
                             1579.13  1595.36  1625.39  1657.07  1672.32
                             1741.54  1742.36  1765.19  1783.06  1783.56
                             1818.02  1854.63  1861.08  1887.78  1936.46
                             1937.27  1954.10  1967.14  1993.77  2015.99
                             2033.51  2046.45  2046.80  2081.29  2087.08
                             2131.85  2141.05  2141.60  2149.35  2156.13
                             2157.74  2170.10  2190.26  2210.88  2240.49
                             2249.39  2340.35  2341.88  2402.77  2406.44
                             4324.84  4359.69  4361.06  4375.67  4381.40
                             4429.25  4432.44  4436.39  4453.34  4462.39
                             4484.36  4486.19  4549.64  4551.24  4558.44
                             4562.61  4575.17  4575.95  4616.22  4626.69
                             5124.16  5191.50

 Zero-point correction=                           0.356080 (Hartree/Particle)
 Thermal correction to Energy=                    0.375086
 Thermal correction to Enthalpy=                  0.376030
 Thermal correction to Gibbs Free Energy=         0.304151
 Sum of electronic and zero-point Energies=           -770.256437
 Sum of electronic and thermal Energies=              -770.237431
 Sum of electronic and thermal Enthalpies=            -770.236486
 Sum of electronic and thermal Free Energies=         -770.308365

                     E (Thermal)             CV                S
                      KCal/Mol        Cal/Mol-Kelvin    Cal/Mol-Kelvin
 Total                  235.370             72.124            151.282
 Electronic               0.000              0.000              0.000
 Translational            0.889              2.981             42.499
 Rotational               0.889              2.981             34.051
 Vibrational            233.593             66.163             74.732
 Vibration     1          0.593              1.986              7.364
 Vibration     2          0.593              1.986              6.677
 Vibration     3          0.593              1.985              6.215
 Vibration     4          0.593              1.984              6.072
 Vibration     5          0.594              1.982              5.369
 Vibration     6          0.595              1.980              5.093
 Vibration     7          0.598              1.969              4.181
 Vibration     8          0.603              1.951              3.503
 Vibration     9          0.613              1.918              2.874
 Vibration    10          0.621              1.895              2.585
 Vibration    11          0.633              1.854              2.229
 Vibration    12          0.653              1.791              1.859
 Vibration    13          0.674              1.727              1.592
 Vibration    14          0.690              1.680              1.435
 Vibration    15          0.708              1.628              1.291
 Vibration    16          0.721              1.592              1.205
 Vibration    17          0.728              1.572              1.159
 Vibration    18          0.749              1.516              1.044
 Vibration    19          0.783              1.426              0.891
 Vibration    20          0.783              1.426              0.891
 Vibration    21          0.786              1.419              0.880
 Vibration    22          0.794              1.397              0.847
 Vibration    23          0.815              1.347              0.777
 Vibration    24          0.839              1.289              0.703
 Vibration    25          0.857              1.247              0.655
 Vibration    26          0.885              1.184              0.587
 Vibration    27          0.903              1.144              0.548
 Vibration    28          0.948              1.052              0.466

 Optimization completed on the basis of negligible forces.
    -- Stationary point found.
 Normal termination of Gaussian 16 at Thu Jul 18 06:09:06 2024.
 Gaussian 16:  ES64L-G16RevA.03 25-Dec-2016

 ----------------------------------------------------------------------
 # TD(NStates=10, Root=1) B3LYP/6-31G** SCRF=(Solvent=water) volume pop
 =NPA density=current Geom=AllCheck Guess=Read
 ----------------------------------------------------------------------

 Structure from the checkpoint file:  "JSKXMAPMKXVJKT-UHFFFAOYSA-N_conf_2_2.chk"
 ----------------------------------
 JSKXMAPMKXVJKT-UHFFFAOYSA-N_conf_2
 ----------------------------------
 Charge =  0 Multiplicity = 1

                         Standard orientation:
 ---------------------------------------------------------------------
 Center     Atomic      Atomic             Coordinates (Angstroms)
 Number     Number       Type             X           Y           Z
 ---------------------------------------------------------------------
      1          6           0        4.076295   -3.115948    0.384131
      2          6           0        3.378739   -1.815013    0.060716
      3          6           0        2.432885   -1.733594   -0.974981
      4          6           0        1.786147   -0.542668   -1.280867
      5          6           0        2.056577    0.642708   -0.561860
      6          7           0        1.433361    1.829688   -0.954707
      7          6           0        1.292121    2.963449   -0.042626
      8          6           0        0.233777    2.789027    1.063025
      9          6           0       -1.214842    2.950901    0.571630
     10          7           0       -1.610304    2.022669   -0.491724
     11          6           0       -2.180306    0.776995   -0.215028
     12          6           0       -2.858344    0.085308   -1.241077
     13          6           0       -3.413651   -1.167522   -1.012687
     14          6           0       -3.322523   -1.797955    0.239837
     15          6           0       -3.918704   -3.167013    0.471412
     16          6           0       -2.650668   -1.106486    1.251725
     17          6           0       -2.086869    0.155334    1.041814
     18          6           0        2.996701    0.565527    0.482070
     19          6           0        3.638644   -0.641050    0.774018
     20          1           0        4.760851   -2.998991    1.229166
     21          1           0        3.361300   -3.906096    0.643008
     22          1           0        4.661173   -3.485170   -0.467046
     23          1           0        2.194748   -2.623894   -1.553243
     24          1           0        1.059870   -0.515044   -2.089929
     25          1           0        0.563780    1.659646   -1.448647
     26          1           0        1.040295    3.840409   -0.651437
     27          1           0        2.266870    3.179049    0.403507
     28          1           0        0.399551    3.548125    1.838486
     29          1           0        0.376155    1.815059    1.544408
     30          1           0       -1.902521    2.875314    1.426642
     31          1           0       -1.329472    3.961729    0.166643
     32          1           0       -2.034170    2.479400   -1.287770
     33          1           0       -2.948792    0.546568   -2.221889
     34          1           0       -3.934152   -1.667457   -1.826597
     35          1           0       -3.389595   -3.941136   -0.098120
     36          1           0       -4.969120   -3.207752    0.161248
     37          1           0       -3.871554   -3.446488    1.527793
     38          1           0       -2.561600   -1.558540    2.236949
     39          1           0       -1.576400    0.646960    1.861979
     40          1           0        3.235757    1.441978    1.074117
     41          1           0        4.359741   -0.662157    1.588238
 ---------------------------------------------------------------------

 SCF Done:  E(RB3LYP) =  -770.612516605     A.U. after    1 cycles

 Excitation energies and oscillator strengths:

 Excited State   1:      Singlet-A      4.4327 eV  279.70 nm  f=0.0420  <S**2>=0.000
      67 -> 73         0.12367
      68 -> 71        -0.12254
      69 -> 70         0.30519
      69 -> 71         0.60629
 This state for optimization and/or second-order correction.
 Total Energy, E(TD-HF/TD-DFT) =  -770.449618621
 Copying the excited state density for this state as the 1-particle RhoCI density.

 Excited State   2:      Singlet-A      4.4580 eV  278.12 nm  f=0.0769  <S**2>=0.000
      66 -> 72        -0.10311
      68 -> 70         0.20574
      69 -> 70         0.58976
      69 -> 71        -0.30348

 Excited State   3:      Singlet-A      4.7529 eV  260.86 nm  f=0.0317  <S**2>=0.000
      66 -> 72        -0.11785
      68 -> 70         0.65236
      69 -> 70        -0.22793

 Excited State   4:      Singlet-A      4.8813 eV  254.00 nm  f=0.0043  <S**2>=0.000
      68 -> 71         0.68544
      69 -> 71         0.14127

 Excited State   5:      Singlet-A      4.9424 eV  250.86 nm  f=0.1251  <S**2>=0.000
      69 -> 72         0.70207

 Excited State   6:      Singlet-A      5.1357 eV  241.42 nm  f=0.2433  <S**2>=0.000
      68 -> 72        -0.22454
      69 -> 73         0.66236

 Excited State   7:      Singlet-A      5.3666 eV  231.03 nm  f=0.7015  <S**2>=0.000
      66 -> 70         0.10846
      68 -> 72         0.65694
      69 -> 73         0.21268

 Excited State   8:      Singlet-A      5.4458 eV  227.67 nm  f=0.0876  <S**2>=0.000
      68 -> 73         0.69563

 Excited State   9:      Singlet-A      6.1788 eV  200.66 nm  f=0.0013  <S**2>=0.000
      67 -> 70         0.69995

 Excited State  10:      Singlet-A      6.2777 eV  197.50 nm  f=0.0124  <S**2>=0.000
      66 -> 70         0.10420
      66 -> 71         0.67972

 The electronic state is 1-A.
 Alpha  occ. eigenvalues --  -14.34254 -14.33172 -10.22417 -10.22068 -10.21670
 Alpha  occ. eigenvalues --  -10.21186 -10.18458 -10.18315 -10.18271 -10.18228
 Alpha  occ. eigenvalues --  -10.18136 -10.18126 -10.18113 -10.18095 -10.17933
 Alpha  occ. eigenvalues --  -10.17825 -10.17709 -10.17675 -10.17633  -0.93145
 Alpha  occ. eigenvalues --   -0.91969  -0.84104  -0.83690  -0.77865  -0.75564
 Alpha  occ. eigenvalues --   -0.74193  -0.73751  -0.73468  -0.69005  -0.67014
 Alpha  occ. eigenvalues --   -0.64963  -0.61018  -0.60104  -0.59369  -0.57065
 Alpha  occ. eigenvalues --   -0.56374  -0.52241  -0.51901  -0.49133  -0.47914
 Alpha  occ. eigenvalues --   -0.45756  -0.45272  -0.45142  -0.43988  -0.42946
 Alpha  occ. eigenvalues --   -0.42236  -0.41522  -0.41135  -0.41095  -0.40945
 Alpha  occ. eigenvalues --   -0.40719  -0.40109  -0.38231  -0.37836  -0.37250
 Alpha  occ. eigenvalues --   -0.36898  -0.35678  -0.34873  -0.34504  -0.34382
 Alpha  occ. eigenvalues --   -0.33781  -0.32864  -0.32464  -0.28902  -0.27635
 Alpha  occ. eigenvalues --   -0.24652  -0.24461  -0.19723  -0.18502
 Alpha virt. eigenvalues --    0.00132   0.00340   0.01689   0.02153   0.08274
 Alpha virt. eigenvalues --    0.09870   0.10329   0.11171   0.12091   0.12321
 Alpha virt. eigenvalues --    0.13130   0.14010   0.14464   0.14945   0.15071

 Mulliken charges:
               1
     1  C   -0.388393
     2  C    0.147038
     3  C   -0.203978
     4  C   -0.185428
     5  C    0.281772
     6  N   -0.493992
     7  C   -0.082411
     8  C   -0.176645
     9  C   -0.070736
    10  N   -0.583844
    11  C    0.290345
    12  C   -0.144253
    13  C   -0.149560
    14  C    0.117990
    15  C   -0.385408
    16  C   -0.162798
    17  C   -0.130412
    18  C   -0.161686
    19  C   -0.211318
    20  H    0.112653
    21  H    0.122590
    22  H    0.123001
    23  H    0.051907
    24  H    0.062614
    25  H    0.295421
    26  H    0.132007
    27  H    0.144367
    28  H    0.125128
    29  H    0.119050
    30  H    0.126273
    31  H    0.130074
    32  H    0.289818
    33  H    0.095415
    34  H    0.087942
    35  H    0.125571
    36  H    0.122130
    37  H    0.115628
    38  H    0.088880
    39  H    0.096232
    40  H    0.069361
    41  H    0.057653
 Sum of Mulliken charges =  -0.00000

 Dipole moment (field-independent basis, Debye):
    X=             -4.6646    Y=              6.1913    Z=              0.0256  Tot=              7.7518
 Quadrupole moment (field-independent basis, Debye-Ang):
   XX=           -124.3430   YY=            -90.6720   ZZ=           -109.5661
   XY=              0.1260   XZ=              7.5069   YZ=             -1.8802

 Summary of Natural Population Analysis:

                                       Natural Population
                Natural  -----------------------------------------------
    Atom  No    Charge         Core      Valence    Rydberg      Total
 -----------------------------------------------------------------------
      C    1   -0.70676      1.99939     4.70026    0.00712     6.70676
      C    2    0.02989      1.99903     3.95617    0.01491     5.97011
      C    3   -0.35573      1.99906     4.33815    0.01852     6.35573
      C    4   -0.34901      1.99907     4.33073    0.01920     6.34901
      C    5    0.16030      1.99898     3.82142    0.01929     5.83970
      N    6   -0.47291      1.99940     5.46205    0.01146     7.47291
      C    7   -0.28850      1.99931     4.27064    0.01855     6.28850
      C    8   -0.48491      1.99931     4.47502    0.01059     6.48491
      C    9   -0.27976      1.99933     4.26376    0.01667     6.27976
      N   10   -0.63388      1.99941     5.62173    0.01274     7.63388
      C   11    0.16146      1.99900     3.82106    0.01848     5.83854
      C   12   -0.28057      1.99906     4.26774    0.01377     6.28057
      C   13   -0.24600      1.99905     4.23336    0.01359     6.24600
      C   14   -0.04821      1.99902     4.03505    0.01414     6.04821
      C   15   -0.70249      1.99940     4.69615    0.00694     6.70249
      C   16   -0.23814      1.99905     4.22551    0.01358     6.23814
      C   17   -0.30305      1.99905     4.29104    0.01296     6.30305
      C   18   -0.35759      1.99906     4.33998    0.01855     6.35759
      C   19   -0.33453      1.99906     4.31737    0.01810     6.33453
      H   20    0.24083      0.00000     0.75782    0.00135     0.75917
      H   21    0.24822      0.00000     0.74970    0.00207     0.75178
      H   22    0.24844      0.00000     0.74953    0.00203     0.75156
      H   23    0.22395      0.00000     0.77444    0.00161     0.77605
      H   24    0.22564      0.00000     0.77240    0.00195     0.77436
      H   25    0.43398      0.00000     0.56160    0.00442     0.56602
      H   26    0.25338      0.00000     0.74458    0.00204     0.74662
      H   27    0.25760      0.00000     0.74058    0.00183     0.74240
      H   28    0.26234      0.00000     0.73591    0.00176     0.73766
      H   29    0.24493      0.00000     0.75165    0.00342     0.75507
      H   30    0.24427      0.00000     0.75310    0.00262     0.75573
      H   31    0.25256      0.00000     0.74562    0.00182     0.74744
      H   32    0.43482      0.00000     0.56233    0.00285     0.56518
      H   33    0.24266      0.00000     0.75577    0.00158     0.75734
      H   34    0.24167      0.00000     0.75677    0.00156     0.75833
      H   35    0.24767      0.00000     0.75080    0.00153     0.75233
      H   36    0.24638      0.00000     0.75208    0.00154     0.75362
      H   37    0.24298      0.00000     0.75573    0.00129     0.75702
      H   38    0.24135      0.00000     0.75709    0.00156     0.75865
      H   39    0.24206      0.00000     0.75635    0.00159     0.75794
      H   40    0.22914      0.00000     0.76921    0.00165     0.77086
      H   41    0.22551      0.00000     0.77284    0.00165     0.77449
 =======================================================================
   * Total *   -0.00000     37.98405    99.69309    0.32286   138.00000

 Normal termination of Gaussian 16 at Thu Jul 18 06:36:34 2024.
