 Gaussian 16, Revision A.03,

 -------------------------------------------------------
 # opt=CalcFc B3LYP/6-31G** SCRF=(Solvent=water) scf=xqc
 -------------------------------------------------------

 ----------------------------------
 VXPJBVRYAHYMNY-UHFFFAOYSA-N_conf_1
 ----------------------------------
 Symbolic Z-matrix:
 Charge =  0 Multiplicity = 1

 SCF Done:  E(RB3LYP) =  -422.988746909     A.U. after   11 cycles
 SCF Done:  E(RB3LYP) =  -422.991919525     A.U. after   10 cycles
 SCF Done:  E(RB3LYP) =  -422.992146079     A.U. after    9 cycles
 SCF Done:  E(RB3LYP) =  -422.992147631     A.U. after    8 cycles
 SCF Done:  E(RB3LYP) =  -422.992149167     A.U. after    8 cycles
 SCF Done:  E(RB3LYP) =  -422.992149111     A.U. after    6 cycles
 Optimization completed.
    -- Stationary point found.
 Normal termination of Gaussian 16 at Tue Jul  9 18:53:10 2024.

 ----------------------------------------------------------------------
 # freq B3LYP/6-31G** SCRF=(Solvent=water) volume NMR pop=NPA density=c
 urrent Geom=AllCheck Guess=Read
 ----------------------------------------------------------------------

 Structure from the checkpoint file:  "VXPJBVRYAHYMNY-UHFFFAOYSA-N_conf_1_1.chk"
 ----------------------------------
 VXPJBVRYAHYMNY-UHFFFAOYSA-N_conf_1
 ----------------------------------
 Charge =  0 Multiplicity = 1

 SCF Done:  E(RB3LYP) =  -422.992149111     A.U. after    1 cycles

      1  C    Isotropic =   159.1660   Anisotropy =    48.0566

      2  N    Isotropic =   240.3089   Anisotropy =    42.2726

      3  C    Isotropic =   141.0654   Anisotropy =    33.2240

      4  C    Isotropic =   129.7033   Anisotropy =    70.7525

      5  O    Isotropic =   304.7488   Anisotropy =    33.7291

      6  C    Isotropic =   120.7367   Anisotropy =    60.2765

      7  C    Isotropic =   142.7289   Anisotropy =    47.8876

      8  N    Isotropic =   229.3534   Anisotropy =    31.4789

      9  C    Isotropic =   154.9497   Anisotropy =    53.9591

     10  H    Isotropic =    29.9608   Anisotropy =     9.2833

     11  H    Isotropic =    29.4726   Anisotropy =     9.8784

     12  H    Isotropic =    29.0109   Anisotropy =     8.0746

     13  H    Isotropic =    30.8963   Anisotropy =    12.4883

     14  H    Isotropic =    28.7690   Anisotropy =     8.0103

     15  H    Isotropic =    29.4311   Anisotropy =     7.0453

     16  H    Isotropic =    28.3015   Anisotropy =     6.3199

     17  H    Isotropic =    28.1910   Anisotropy =     5.7451

     18  H    Isotropic =    27.7447   Anisotropy =     8.0643

     19  H    Isotropic =    28.2164   Anisotropy =     6.1674

     20  H    Isotropic =    29.7195   Anisotropy =     7.4755

     21  H    Isotropic =    28.7441   Anisotropy =     5.2336

     22  H    Isotropic =    31.0610   Anisotropy =    12.0725

     23  H    Isotropic =    29.2052   Anisotropy =     9.8708

     24  H    Isotropic =    29.5929   Anisotropy =     9.1890

     25  H    Isotropic =    29.4561   Anisotropy =     8.7976

  Exact polarizability: 115.777   3.428 103.053   1.477  -1.031  96.355
 Approx polarizability: 113.236   1.479 109.205   1.076   0.075 109.412

                      1                      2                      3
                      A                      A                      A
 Frequencies --     26.6354                41.7746                67.2560
 Red. masses --      3.3973                 3.2718                 2.8668
 Frc consts  --      0.0014                 0.0034                 0.0076
 IR Inten    --      0.0913                 0.6369                 0.7888

                      4                      5                      6
                      A                      A                      A
 Frequencies --    113.9439               117.2426               175.7098
 Red. masses --      1.8498                 2.2279                 2.0724
 Frc consts  --      0.0141                 0.0180                 0.0377
 IR Inten    --      4.4834                 5.9298                10.6275

                      7                      8                      9
                      A                      A                      A
 Frequencies --    232.1705               240.0829               250.6373
 Red. masses --      2.9671                 1.3869                 1.9103
 Frc consts  --      0.0942                 0.0471                 0.0707
 IR Inten    --      3.2914                 1.4529                 2.6943

                     10                     11                     12
                      A                      A                      A
 Frequencies --    268.7826               326.6467               377.6313
 Red. masses --      1.4908                 2.4770                 1.9954
 Frc consts  --      0.0635                 0.1557                 0.1677
 IR Inten    --      0.9289                 7.4852                10.9781

                     13                     14                     15
                      A                      A                      A
 Frequencies --    436.6924               533.5745               568.6739
 Red. masses --      2.1355                 2.4623                 2.5258
 Frc consts  --      0.2399                 0.4130                 0.4813
 IR Inten    --      2.3001                 9.8441                 5.1427

                     16                     17                     18
                      A                      A                      A
 Frequencies --    762.8942               803.2535               815.9333
 Red. masses --      1.5139                 1.6716                 2.1778
 Frc consts  --      0.5191                 0.6354                 0.8542
 IR Inten    --    175.8583                97.3250                50.2207

                     19                     20                     21
                      A                      A                      A
 Frequencies --    871.4095               897.1426               927.3523
 Red. masses --      1.5827                 1.6297                 1.9566
 Frc consts  --      0.7081                 0.7728                 0.9914
 IR Inten    --      6.6467                27.8311                37.8829

                     22                     23                     24
                      A                      A                      A
 Frequencies --   1010.3891              1020.5876              1023.1112
 Red. masses --      1.9824                 1.9493                 1.6417
 Frc consts  --      1.1924                 1.1963                 1.0125
 IR Inten    --      9.5095                36.8654                 1.9089

                     25                     26                     27
                      A                      A                      A
 Frequencies --   1067.1013              1104.6668              1118.9260
 Red. masses --      2.1103                 1.7110                 3.1546
 Frc consts  --      1.4158                 1.2302                 2.3270
 IR Inten    --     77.9022                 9.2254               191.3408

                     28                     29                     30
                      A                      A                      A
 Frequencies --   1151.0323              1158.2686              1166.1066
 Red. masses --      3.0123                 1.9086                 1.7961
 Frc consts  --      2.3514                 1.5086                 1.4390
 IR Inten    --     46.1894                 7.9678                24.6920

                     31                     32                     33
                      A                      A                      A
 Frequencies --   1179.2672              1196.6433              1205.8603
 Red. masses --      1.8758                 1.8030                 1.8308
 Frc consts  --      1.5370                 1.5212                 1.5685
 IR Inten    --     34.8632                 7.5393                 5.4703

                     34                     35                     36
                      A                      A                      A
 Frequencies --   1263.5530              1283.5160              1316.0591
 Red. masses --      1.1416                 1.3027                 1.2419
 Frc consts  --      1.0739                 1.2644                 1.2673
 IR Inten    --     15.7046                26.5985                 9.6349

                     37                     38                     39
                      A                      A                      A
 Frequencies --   1334.5408              1382.9252              1395.9230
 Red. masses --      1.2421                 1.2891                 1.2732
 Frc consts  --      1.3034                 1.4526                 1.4618
 IR Inten    --     19.1237                42.0720                 6.6126

                     40                     41                     42
                      A                      A                      A
 Frequencies --   1413.9902              1426.7650              1460.7580
 Red. masses --      1.3064                 1.3680                 1.1309
 Frc consts  --      1.5390                 1.6407                 1.4218
 IR Inten    --     15.1540                 3.3778                 1.0066

                     43                     44                     45
                      A                      A                      A
 Frequencies --   1465.3364              1479.1777              1484.5813
 Red. masses --      1.1677                 1.1147                 1.2138
 Frc consts  --      1.4773                 1.4370                 1.5762
 IR Inten    --      6.0930                 6.9623                21.4184

                     46                     47                     48
                      A                      A                      A
 Frequencies --   1490.7965              1494.4924              1495.3708
 Red. masses --      1.0924                 1.1446                 1.1058
 Frc consts  --      1.4304                 1.5063                 1.4569
 IR Inten    --     12.0688                24.8468                 3.8502

                     49                     50                     51
                      A                      A                      A
 Frequencies --   1497.9008              1518.4788              1522.5293
 Red. masses --      1.0850                 1.0760                 1.0657
 Frc consts  --      1.4343                 1.4617                 1.4555
 IR Inten    --      3.4979                27.2719                 4.1632

                     52                     53                     54
                      A                      A                      A
 Frequencies --   1525.8383              1530.9995              2934.4420
 Red. masses --      1.0692                 1.0793                 1.0726
 Frc consts  --      1.4667                 1.4906                 5.4416
 IR Inten    --     14.0412                12.9704                97.3395

                     55                     56                     57
                      A                      A                      A
 Frequencies --   2952.8710              2973.0441              2995.7081
 Red. masses --      1.0588                 1.0553                 1.0552
 Frc consts  --      5.4394                 5.4957                 5.5793
 IR Inten    --    143.8463                90.4017                79.3256

                     58                     59                     60
                      A                      A                      A
 Frequencies --   3013.4521              3026.5409              3040.0828
 Red. masses --      1.0662                 1.0889                 1.0771
 Frc consts  --      5.7046                 5.8769                 5.8651
 IR Inten    --     97.4720                14.5427               131.8380

                     61                     62                     63
                      A                      A                      A
 Frequencies --   3044.1494              3060.7378              3063.6314
 Red. masses --      1.0866                 1.0760                 1.0791
 Frc consts  --      5.9327                 5.9392                 5.9675
 IR Inten    --     68.9224                69.7947                68.7933

                     64                     65                     66
                      A                      A                      A
 Frequencies --   3081.6118              3092.4130              3109.1149
 Red. masses --      1.1046                 1.0995                 1.1023
 Frc consts  --      6.1801                 6.1950                 6.2782
 IR Inten    --     60.6476                60.3898                49.9517

                     67                     68                     69
                      A                      A                      A
 Frequencies --   3110.6484              3511.1625              3514.4670
 Red. masses --      1.1016                 1.0737                 1.0736
 Frc consts  --      6.2805                 7.7992                 7.8129
 IR Inten    --     50.2270                 3.2511                 1.5649

 - Thermochemistry -
 -------------------
 Temperature   298.150 Kelvin.  Pressure   1.00000 Atm.
 Atom     1 has atomic number  6 and mass  12.00000

 Molecular mass:   132.12626 amu.
 Principal axes and moments of inertia in atomic units:
                           1         2         3
     Eigenvalues --   434.561253118.089533293.04904
           X            0.99995   0.01047  -0.00030
           Y           -0.01047   0.99993  -0.00614
           Z            0.00023   0.00614   0.99998
 This molecule is an asymmetric top.
 Rotational symmetry number  1.
 Warning -- assumption of classical behavior for rotation
           may cause significant error
 Rotational temperatures (Kelvin)      0.19931     0.02778     0.02630
 Rotational constants (GHZ):           4.15302     0.57880     0.54805
 Zero-point vibrational energy     601512.3 (Joules/Mol)
                                  143.76490 (Kcal/Mol)
 Warning -- explicit consideration of  15 degrees of freedom as
           vibrations may cause significant error
 Vibrational temperatures:     38.32    60.10    96.77   163.94   168.69
          (Kelvin)            252.81   334.04   345.43   360.61   386.72
                              469.97   543.33   628.30   767.69   818.19
                             1097.63  1155.70  1173.95  1253.76  1290.79
                             1334.25  1453.72  1468.40  1472.03  1535.32
                             1589.37  1609.88  1656.08  1666.49  1677.77
                             1696.70  1721.70  1734.96  1817.97  1846.69
                             1893.52  1920.11  1989.72  2008.42  2034.42
                             2052.80  2101.71  2108.29  2128.21  2135.98
                             2144.92  2150.24  2151.51  2155.15  2184.75
                             2190.58  2195.34  2202.77  4222.01  4248.52
                             4277.55  4310.16  4335.69  4354.52  4374.00
                             4379.85  4403.72  4407.88  4433.75  4449.29
                             4473.32  4475.53  5051.78  5056.53

 Zero-point correction=                           0.229104 (Hartree/Particle)
 Thermal correction to Energy=                    0.240644
 Thermal correction to Enthalpy=                  0.241588
 Thermal correction to Gibbs Free Energy=         0.190287
 Sum of electronic and zero-point Energies=           -422.763045
 Sum of electronic and thermal Energies=              -422.751505
 Sum of electronic and thermal Enthalpies=            -422.750561
 Sum of electronic and thermal Free Energies=         -422.801862

                     E (Thermal)             CV                S
                      KCal/Mol        Cal/Mol-Kelvin    Cal/Mol-Kelvin
 Total                  151.007             40.178            107.973
 Electronic               0.000              0.000              0.000
 Translational            0.889              2.981             40.548
 Rotational               0.889              2.981             29.880
 Vibrational            149.229             34.217             37.545
 Vibration     1          0.593              1.984              6.065
 Vibration     2          0.594              1.980              5.173
 Vibration     3          0.598              1.970              4.232
 Vibration     4          0.607              1.938              3.201
 Vibration     5          0.608              1.935              3.145
 Vibration     6          0.628              1.872              2.374
 Vibration     7          0.653              1.792              1.862
 Vibration     8          0.657              1.779              1.802
 Vibration     9          0.663              1.762              1.726
 Vibration    10          0.673              1.731              1.604
 Vibration    11          0.710              1.622              1.277
 Vibration    12          0.748              1.518              1.049
 Vibration    13          0.797              1.390              0.837
 Vibration    14          0.889              1.176              0.579
 Vibration    15          0.925              1.099              0.507

 Optimization completed.
    -- Stationary point found.
 Normal termination of Gaussian 16 at Tue Jul  9 19:08:22 2024.
 Gaussian 16:  EM64L-G16RevA.03 25-Dec-2016

 ----------------------------------------------------------------------
 # TD(NStates=10, Root=1) B3LYP/6-31G** SCRF=(Solvent=water) volume pop
 =NPA density=current Geom=AllCheck Guess=Read
 ----------------------------------------------------------------------

 Structure from the checkpoint file:  "VXPJBVRYAHYMNY-UHFFFAOYSA-N_conf_1_2.chk"
 ----------------------------------
 VXPJBVRYAHYMNY-UHFFFAOYSA-N_conf_1
 ----------------------------------
 Charge =  0 Multiplicity = 1

                         Standard orientation:
 ---------------------------------------------------------------------
 Center     Atomic      Atomic             Coordinates (Angstroms)
 Number     Number       Type             X           Y           Z
 ---------------------------------------------------------------------
      1          6           0        3.815718    0.439644    0.019591
      2          7           0        2.931793   -0.529495   -0.629093
      3          6           0        1.935048   -1.127247    0.260474
      4          6           0        0.829382   -0.190770    0.750524
      5          8           0        0.141259    0.293853   -0.401326
      6          6           0       -0.816659    1.319307   -0.140536
      7          6           0       -2.132750    0.772055    0.404883
      8          7           0       -2.723312   -0.166453   -0.545196
      9          6           0       -3.904767   -0.842972   -0.017915
     10          1           0        4.405583   -0.067773    0.791540
     11          1           0        4.513296    0.841895   -0.721476
     12          1           0        3.309020    1.293988    0.498125
     13          1           0        2.429271   -0.064324   -1.382309
     14          1           0        1.460096   -1.961843   -0.270479
     15          1           0        2.448369   -1.551332    1.132205
     16          1           0        0.153296   -0.739713    1.422250
     17          1           0        1.243907    0.655392    1.319254
     18          1           0       -0.998434    1.805128   -1.104704
     19          1           0       -0.400604    2.065041    0.552479
     20          1           0       -2.821413    1.614609    0.554605
     21          1           0       -1.969338    0.324767    1.403682
     22          1           0       -2.011789   -0.860114   -0.766494
     23          1           0       -4.255229   -1.588172   -0.738321
     24          1           0       -4.711520   -0.115458    0.129219
     25          1           0       -3.739792   -1.351387    0.948923
 ---------------------------------------------------------------------

 SCF Done:  E(RB3LYP) =  -422.992149111     A.U. after    1 cycles

 Excitation energies and oscillator strengths:

 Excited State   1:      Singlet-A      7.0624 eV  175.56 nm  f=0.0176  <S**2>=0.000
      36 -> 38         0.18070
      36 -> 39         0.19799
      37 -> 38         0.64120
 This state for optimization and/or second-order correction.
 Total Energy, E(TD-HF/TD-DFT) =  -422.732612247
 Copying the excited state density for this state as the 1-particle RhoCI density.

 Excited State   2:      Singlet-A      7.1035 eV  174.54 nm  f=0.0090  <S**2>=0.000
      36 -> 38         0.63379
      37 -> 38        -0.17702
      37 -> 39         0.21613

 Excited State   3:      Singlet-A      7.8608 eV  157.72 nm  f=0.0278  <S**2>=0.000
      35 -> 38        -0.24857
      36 -> 38        -0.19266
      36 -> 39         0.46428
      36 -> 40        -0.21430
      37 -> 39         0.33730

 Excited State   4:      Singlet-A      7.9056 eV  156.83 nm  f=0.0359  <S**2>=0.000
      36 -> 39        -0.24717
      36 -> 40        -0.12965
      36 -> 42         0.10220
      37 -> 38         0.20200
      37 -> 39         0.34452
      37 -> 40         0.41531
      37 -> 41         0.16403
      37 -> 42        -0.16315

 Excited State   5:      Singlet-A      8.0558 eV  153.91 nm  f=0.0067  <S**2>=0.000
      35 -> 38         0.63441
      36 -> 39         0.11007
      37 -> 39         0.17980
      37 -> 40        -0.15913

 Excited State   6:      Singlet-A      8.1047 eV  152.98 nm  f=0.0206  <S**2>=0.000
      35 -> 38        -0.13795
      36 -> 39        -0.31314
      36 -> 40         0.17981
      37 -> 39         0.38161
      37 -> 40        -0.36305
      37 -> 41        -0.10021
      37 -> 42         0.16295
      37 -> 43        -0.12179

 Excited State   7:      Singlet-A      8.1636 eV  151.87 nm  f=0.0494  <S**2>=0.000
      36 -> 39         0.21302
      36 -> 40         0.50662
      36 -> 42         0.25213
      36 -> 43         0.13622
      37 -> 39         0.12544
      37 -> 40         0.20357
      37 -> 42         0.18095

 Excited State   8:      Singlet-A      8.3163 eV  149.09 nm  f=0.0331  <S**2>=0.000
      36 -> 40         0.11884
      36 -> 41        -0.20818
      37 -> 40        -0.21339
      37 -> 41         0.59430
      37 -> 45        -0.14649

 Excited State   9:      Singlet-A      8.4799 eV  146.21 nm  f=0.0393  <S**2>=0.000
      36 -> 40        -0.15068
      36 -> 41         0.59315
      36 -> 42         0.12088
      36 -> 45         0.12177
      37 -> 41         0.22669

 Excited State  10:      Singlet-A      8.5790 eV  144.52 nm  f=0.0212  <S**2>=0.000
      36 -> 41        -0.10113
      36 -> 42        -0.14093
      36 -> 44        -0.22628
      37 -> 40         0.11736
      37 -> 41         0.11291
      37 -> 42         0.29819
      37 -> 43        -0.18876
      37 -> 44         0.49407

 The electronic state is 1-A.
 Alpha  occ. eigenvalues --  -19.15162 -14.31436 -14.31409 -10.22893 -10.22591
 Alpha  occ. eigenvalues --  -10.20461 -10.20300 -10.19754 -10.19730  -1.03000
 Alpha  occ. eigenvalues --   -0.89677  -0.89169  -0.75660  -0.71739  -0.66542
 Alpha  occ. eigenvalues --   -0.64723  -0.60916  -0.57773  -0.49819  -0.49312
 Alpha  occ. eigenvalues --   -0.48348  -0.46216  -0.45306  -0.43173  -0.42463
 Alpha  occ. eigenvalues --   -0.41039  -0.40439  -0.38343  -0.36944  -0.36091
 Alpha  occ. eigenvalues --   -0.36026  -0.35208  -0.34461  -0.31475  -0.25947
 Alpha  occ. eigenvalues --   -0.22177  -0.21938
 Alpha virt. eigenvalues --    0.07673   0.10247   0.11260   0.12212   0.13128
 Alpha virt. eigenvalues --    0.13801   0.14254   0.14916   0.16009   0.16674
 Alpha virt. eigenvalues --    0.17328   0.18210   0.18487   0.18569   0.19076

 Mulliken charges:
               1
     1  C   -0.156229
     2  N   -0.326549
     3  C   -0.064641
     4  C    0.099845
     5  O   -0.478749
     6  C    0.031961
     7  C   -0.045379
     8  N   -0.340814
     9  C   -0.188836
    10  H    0.108047
    11  H    0.094303
    12  H    0.071128
    13  H    0.205066
    14  H    0.098096
    15  H    0.092070
    16  H   -0.003969
    17  H    0.011341
    18  H    0.098961
    19  H    0.067418
    20  H    0.078821
    21  H    0.069549
    22  H    0.152529
    23  H    0.108682
    24  H    0.110532
    25  H    0.106818
 Sum of Mulliken charges =  -0.00000

 Dipole moment (field-independent basis, Debye):
    X=             -0.0156    Y=             -0.1130    Z=              0.7072  Tot=              0.7163
 Quadrupole moment (field-independent basis, Debye-Ang):
   XX=            -51.6979   YY=            -58.4447   ZZ=            -60.6316
   XY=              1.8446   XZ=             -1.1313   YZ=             -0.2789

 Summary of Natural Population Analysis:

                                       Natural Population
                Natural  -----------------------------------------------
    Atom  No    Charge         Core      Valence    Rydberg      Total
 -----------------------------------------------------------------------
      C    1   -0.53421      1.99946     4.51722    0.01752     6.53421
      N    2   -0.42319      1.99947     5.41138    0.01234     7.42319
      C    3   -0.32186      1.99931     4.30368    0.01887     6.32186
      C    4   -0.15306      1.99927     4.12837    0.02542     6.15306
      O    5   -0.62278      1.99980     6.60926    0.01373     8.62278
      C    6   -0.14782      1.99929     4.12507    0.02346     6.14782
      C    7   -0.33136      1.99931     4.31402    0.01804     6.33136
      N    8   -0.48874      1.99946     5.47365    0.01563     7.48874
      C    9   -0.53254      1.99949     4.51564    0.01741     6.53254
      H   10    0.22272      0.00000     0.76555    0.01173     0.77728
      H   11    0.21893      0.00000     0.76843    0.01264     0.78107
      H   12    0.19239      0.00000     0.78005    0.02756     0.80761
      H   13    0.35381      0.00000     0.61095    0.03524     0.64619
      H   14    0.23534      0.00000     0.75040    0.01426     0.76466
      H   15    0.21908      0.00000     0.76672    0.01419     0.78092
      H   16    0.13806      0.00000     0.82736    0.03457     0.86194
      H   17    0.15129      0.00000     0.81917    0.02954     0.84871
      H   18    0.22643      0.00000     0.76956    0.00401     0.77357
      H   19    0.19070      0.00000     0.79774    0.01156     0.80930
      H   20    0.21138      0.00000     0.77398    0.01465     0.78862
      H   21    0.20420      0.00000     0.77249    0.02331     0.79580
      H   22    0.31970      0.00000     0.63344    0.04686     0.68030
      H   23    0.22994      0.00000     0.76313    0.00693     0.77006
      H   24    0.22186      0.00000     0.76843    0.00970     0.77814
      H   25    0.21973      0.00000     0.76841    0.01186     0.78027
 =======================================================================
   * Total *   -0.00000     17.99485    55.53410    0.47105    74.00000

 Normal termination of Gaussian 16 at Tue Jul  9 19:25:28 2024.
