 Gaussian 16, Revision A.03,

 -------------------------------------------------------
 # opt=CalcFc B3LYP/6-31G** SCRF=(Solvent=water) scf=xqc
 -------------------------------------------------------

 ----------------------------------
 VXPJBVRYAHYMNY-UHFFFAOYSA-N_conf_3
 ----------------------------------
 Symbolic Z-matrix:
 Charge =  0 Multiplicity = 1

 SCF Done:  E(RB3LYP) =  -422.987556882     A.U. after   11 cycles
 SCF Done:  E(RB3LYP) =  -422.990999721     A.U. after    9 cycles
 SCF Done:  E(RB3LYP) =  -422.991189317     A.U. after    9 cycles
 SCF Done:  E(RB3LYP) =  -422.991195400     A.U. after    9 cycles
 SCF Done:  E(RB3LYP) =  -422.991195738     A.U. after    7 cycles
 SCF Done:  E(RB3LYP) =  -422.991195883     A.U. after    6 cycles
 Optimization completed.
    -- Stationary point found.
 Normal termination of Gaussian 16 at Tue Jul  9 19:10:18 2024.

 ----------------------------------------------------------------------
 # freq B3LYP/6-31G** SCRF=(Solvent=water) volume NMR pop=NPA density=c
 urrent Geom=AllCheck Guess=Read
 ----------------------------------------------------------------------

 Structure from the checkpoint file:  "VXPJBVRYAHYMNY-UHFFFAOYSA-N_conf_3_1.chk"
 ----------------------------------
 VXPJBVRYAHYMNY-UHFFFAOYSA-N_conf_3
 ----------------------------------
 Charge =  0 Multiplicity = 1

 SCF Done:  E(RB3LYP) =  -422.991195883     A.U. after    1 cycles

      1  C    Isotropic =   154.5401   Anisotropy =    54.2466

      2  N    Isotropic =   223.8309   Anisotropy =    54.7266

      3  C    Isotropic =   137.8975   Anisotropy =    38.7250

      4  C    Isotropic =   120.2461   Anisotropy =    62.0812

      5  O    Isotropic =   289.7544   Anisotropy =    46.1153

      6  C    Isotropic =   126.7418   Anisotropy =    76.2554

      7  C    Isotropic =   141.0909   Anisotropy =    32.3538

      8  N    Isotropic =   239.3118   Anisotropy =    43.5261

      9  C    Isotropic =   159.0869   Anisotropy =    48.0053

     10  H    Isotropic =    29.6251   Anisotropy =     8.4668

     11  H    Isotropic =    29.4729   Anisotropy =     9.1832

     12  H    Isotropic =    29.2087   Anisotropy =     9.7941

     13  H    Isotropic =    31.7733   Anisotropy =    12.0121

     14  H    Isotropic =    29.0647   Anisotropy =     5.1393

     15  H    Isotropic =    29.0996   Anisotropy =     7.0085

     16  H    Isotropic =    28.2558   Anisotropy =     6.2960

     17  H    Isotropic =    28.2302   Anisotropy =     5.9452

     18  H    Isotropic =    27.8663   Anisotropy =     5.4063

     19  H    Isotropic =    28.7345   Anisotropy =     7.3091

     20  H    Isotropic =    28.6773   Anisotropy =     8.0067

     21  H    Isotropic =    29.4413   Anisotropy =     7.2378

     22  H    Isotropic =    30.9257   Anisotropy =    13.0215

     23  H    Isotropic =    29.9493   Anisotropy =     9.3360

     24  H    Isotropic =    28.9888   Anisotropy =     8.0020

     25  H    Isotropic =    29.4706   Anisotropy =     9.7027

  Exact polarizability: 114.530   2.024 100.914   2.766  -3.344 100.718
 Approx polarizability: 112.308   1.727 109.955   2.315  -2.278 108.834

                      1                      2                      3
                      A                      A                      A
 Frequencies --     28.9026                50.5551                77.7994
 Red. masses --      3.0677                 2.6263                 2.3789
 Frc consts  --      0.0015                 0.0040                 0.0085
 IR Inten    --      0.3422                 2.6549                 1.2088

                      4                      5                      6
                      A                      A                      A
 Frequencies --     83.1260               110.4934               170.7279
 Red. masses --      2.8188                 2.2946                 2.3608
 Frc consts  --      0.0115                 0.0165                 0.0405
 IR Inten    --      5.5859                 4.4643                 7.1757

                      7                      8                      9
                      A                      A                      A
 Frequencies --    208.8155               249.9276               259.7819
 Red. masses --      1.6935                 1.6143                 1.3376
 Frc consts  --      0.0435                 0.0594                 0.0532
 IR Inten    --      0.3064                 1.6985                 2.1926

                     10                     11                     12
                      A                      A                      A
 Frequencies --    276.0211               302.8663               333.3801
 Red. masses --      2.0436                 2.6132                 2.8982
 Frc consts  --      0.0917                 0.1412                 0.1898
 IR Inten    --      3.2017                 4.8854                 2.0708

                     13                     14                     15
                      A                      A                      A
 Frequencies --    421.2864               543.4088               555.5976
 Red. masses --      1.9328                 2.3947                 2.5004
 Frc consts  --      0.2021                 0.4166                 0.4548
 IR Inten    --      6.2529                 7.5337                 2.8599

                     16                     17                     18
                      A                      A                      A
 Frequencies --    769.9624               786.8924               826.1890
 Red. masses --      1.4860                 1.4957                 2.1341
 Frc consts  --      0.5190                 0.5457                 0.8583
 IR Inten    --    143.2550               199.1467                 1.3328

                     19                     20                     21
                      A                      A                      A
 Frequencies --    891.4059               900.2543               934.5703
 Red. masses --      1.7791                 1.4987                 1.9601
 Frc consts  --      0.8329                 0.7157                 1.0087
 IR Inten    --      0.9903                 6.5471                58.0194

                     22                     23                     24
                      A                      A                      A
 Frequencies --   1011.3585              1034.1249              1056.5881
 Red. masses --      1.6658                 1.7062                 2.0177
 Frc consts  --      1.0039                 1.0750                 1.3271
 IR Inten    --      4.7455                10.7634                25.5843

                     25                     26                     27
                      A                      A                      A
 Frequencies --   1072.4426              1074.9346              1131.1553
 Red. masses --      1.9041                 2.3083                 2.8103
 Frc consts  --      1.2903                 1.5715                 2.1186
 IR Inten    --     43.3970                37.8542               157.5826

                     28                     29                     30
                      A                      A                      A
 Frequencies --   1154.2320              1157.9277              1169.4041
 Red. masses --      3.3825                 2.0023                 1.9124
 Frc consts  --      2.6551                 1.5818                 1.5408
 IR Inten    --    117.5332                 8.5793                35.1960

                     31                     32                     33
                      A                      A                      A
 Frequencies --   1176.1775              1205.4804              1210.9381
 Red. masses --      1.9333                 1.7540                 1.6701
 Frc consts  --      1.5758                 1.5018                 1.4429
 IR Inten    --     35.2284                 4.4036                 7.9564

                     34                     35                     36
                      A                      A                      A
 Frequencies --   1265.6073              1290.5676              1307.4193
 Red. masses --      1.1521                 1.3602                 1.1125
 Frc consts  --      1.0873                 1.3348                 1.1204
 IR Inten    --     14.9620                11.7056                11.6033

                     37                     38                     39
                      A                      A                      A
 Frequencies --   1329.4804              1382.3860              1397.2834
 Red. masses --      1.2646                 1.2419                 1.2824
 Frc consts  --      1.3169                 1.3983                 1.4752
 IR Inten    --      1.3050                81.8124                16.1924

                     40                     41                     42
                      A                      A                      A
 Frequencies --   1407.3516              1452.3447              1461.3517
 Red. masses --      1.3481                 1.4675                 1.1447
 Frc consts  --      1.5732                 1.8237                 1.4403
 IR Inten    --     12.2547                 3.6554                 0.7563

                     43                     44                     45
                      A                      A                      A
 Frequencies --   1465.1439              1479.6630              1487.5609
 Red. masses --      1.1719                 1.1136                 1.2187
 Frc consts  --      1.4822                 1.4365                 1.5889
 IR Inten    --      2.9378                 6.6627                17.5683

                     46                     47                     48
                      A                      A                      A
 Frequencies --   1493.9197              1494.8999              1497.5373
 Red. masses --      1.0571                 1.1750                 1.0954
 Frc consts  --      1.3900                 1.5471                 1.4473
 IR Inten    --     12.1091                16.0699                 0.2312

                     49                     50                     51
                      A                      A                      A
 Frequencies --   1509.9063              1517.6185              1523.8318
 Red. masses --      1.0902                 1.0839                 1.0645
 Frc consts  --      1.4644                 1.4708                 1.4564
 IR Inten    --     21.1911                10.8357                 6.6984

                     52                     53                     54
                      A                      A                      A
 Frequencies --   1527.3694              1538.1779              2930.2362
 Red. masses --      1.0570                 1.0952                 1.0723
 Frc consts  --      1.4529                 1.5267                 5.4245
 IR Inten    --     17.8520                 2.9717                96.6320

                     55                     56                     57
                      A                      A                      A
 Frequencies --   2951.5975              2965.6222              2972.5553
 Red. masses --      1.0591                 1.0593                 1.0560
 Frc consts  --      5.4362                 5.4888                 5.4975
 IR Inten    --    139.9527                73.1282                62.6763

                     58                     59                     60
                      A                      A                      A
 Frequencies --   2981.0767              3001.6682              3009.3695
 Red. masses --      1.0583                 1.0983                 1.1030
 Frc consts  --      5.5414                 5.8302                 5.8853
 IR Inten    --    142.7650               171.7047                26.0354

                     61                     62                     63
                      A                      A                      A
 Frequencies --   3037.1840              3053.0829              3062.7761
 Red. masses --      1.0631                 1.0878                 1.0756
 Frc consts  --      5.7776                 5.9739                 5.9445
 IR Inten    --     88.9765                65.4605                59.0265

                     64                     65                     66
                      A                      A                      A
 Frequencies --   3063.4922              3082.0332              3108.8643
 Red. masses --      1.0792                 1.1047                 1.1023
 Frc consts  --      5.9676                 6.1826                 6.2773
 IR Inten    --     71.6337                57.3430                49.9995

                     67                     68                     69
                      A                      A                      A
 Frequencies --   3113.1897              3498.3550              3514.7218
 Red. masses --      1.1018                 1.0741                 1.0736
 Frc consts  --      6.2915                 7.7450                 7.8141
 IR Inten    --     49.3069                 0.5829                 1.5556

 - Thermochemistry -
 -------------------
 Temperature   298.150 Kelvin.  Pressure   1.00000 Atm.
 Atom     1 has atomic number  6 and mass  12.00000

 Molecular mass:   132.12626 amu.
 Principal axes and moments of inertia in atomic units:
                           1         2         3
     Eigenvalues --   537.257803207.522783305.62101
           X            0.99997   0.00675   0.00389
           Y           -0.00651   0.99828  -0.05832
           Z           -0.00428   0.05829   0.99829
 This molecule is an asymmetric top.
 Rotational symmetry number  1.
 Warning -- assumption of classical behavior for rotation
           may cause significant error
 Rotational temperatures (Kelvin)      0.16121     0.02700     0.02620
 Rotational constants (GHZ):           3.35917     0.56266     0.54596
 Zero-point vibrational energy     600597.0 (Joules/Mol)
                                  143.54612 (Kcal/Mol)
 Warning -- explicit consideration of  15 degrees of freedom as
           vibrations may cause significant error
 Vibrational temperatures:     41.58    72.74   111.94   119.60   158.98
          (Kelvin)            245.64   300.44   359.59   373.77   397.13
                              435.76   479.66   606.14   781.84   799.38
                             1107.80  1132.16  1188.70  1282.53  1295.27
                             1344.64  1455.12  1487.88  1520.19  1543.01
                             1546.59  1627.48  1660.68  1666.00  1682.51
                             1692.26  1734.42  1742.27  1820.93  1856.84
                             1881.08  1912.83  1988.95  2010.38  2024.87
                             2089.60  2102.56  2108.02  2128.91  2140.27
                             2149.42  2150.83  2154.62  2172.42  2183.51
                             2192.45  2197.54  2213.09  4215.96  4246.69
                             4266.87  4276.84  4289.10  4318.73  4329.81
                             4369.83  4392.71  4406.65  4407.68  4434.36
                             4472.96  4479.19  5033.35  5056.90

 Zero-point correction=                           0.228755 (Hartree/Particle)
 Thermal correction to Energy=                    0.240409
 Thermal correction to Enthalpy=                  0.241353
 Thermal correction to Gibbs Free Energy=         0.189789
 Sum of electronic and zero-point Energies=           -422.762441
 Sum of electronic and thermal Energies=              -422.750787
 Sum of electronic and thermal Enthalpies=            -422.749843
 Sum of electronic and thermal Free Energies=         -422.801407

                     E (Thermal)             CV                S
                      KCal/Mol        Cal/Mol-Kelvin    Cal/Mol-Kelvin
 Total                  150.859             40.269            108.525
 Electronic               0.000              0.000              0.000
 Translational            0.889              2.981             40.548
 Rotational               0.889              2.981             30.122
 Vibrational            149.081             34.307             37.854
 Vibration     1          0.593              1.984              5.903
 Vibration     2          0.595              1.977              4.796
 Vibration     3          0.599              1.964              3.946
 Vibration     4          0.600              1.961              3.816
 Vibration     5          0.606              1.941              3.260
 Vibration     6          0.626              1.879              2.427
 Vibration     7          0.642              1.827              2.054
 Vibration     8          0.663              1.763              1.731
 Vibration     9          0.668              1.746              1.663
 Vibration    10          0.678              1.718              1.558
 Vibration    11          0.694              1.668              1.401
 Vibration    12          0.715              1.609              1.244
 Vibration    13          0.784              1.424              0.888
 Vibration    14          0.899              1.154              0.558
 Vibration    15          0.911              1.127              0.533

 Optimization completed.
    -- Stationary point found.
 Normal termination of Gaussian 16 at Tue Jul  9 19:28:37 2024.
 Gaussian 16:  EM64L-G16RevA.03 25-Dec-2016

 ----------------------------------------------------------------------
 # TD(NStates=10, Root=1) B3LYP/6-31G** SCRF=(Solvent=water) volume pop
 =NPA density=current Geom=AllCheck Guess=Read
 ----------------------------------------------------------------------

 Structure from the checkpoint file:  "VXPJBVRYAHYMNY-UHFFFAOYSA-N_conf_3_2.chk"
 ----------------------------------
 VXPJBVRYAHYMNY-UHFFFAOYSA-N_conf_3
 ----------------------------------
 Charge =  0 Multiplicity = 1

                         Standard orientation:
 ---------------------------------------------------------------------
 Center     Atomic      Atomic             Coordinates (Angstroms)
 Number     Number       Type             X           Y           Z
 ---------------------------------------------------------------------
      1          6           0       -3.975477   -0.951158   -0.324096
      2          7           0       -2.780013   -0.123890   -0.470383
      3          6           0       -2.101988    0.105060    0.803822
      4          6           0       -0.885121    1.006332    0.662280
      5          8           0        0.112318    0.356542   -0.110191
      6          6           0        1.299179    1.125981   -0.254138
      7          6           0        2.311560    0.277588   -1.024519
      8          7           0        2.693623   -0.987847   -0.394644
      9          6           0        3.502552   -0.839765    0.815769
     10          1           0       -3.686441   -1.962644   -0.016231
     11          1           0       -4.698313   -0.573449    0.421266
     12          1           0       -4.489292   -1.028764   -1.286747
     13          1           0       -3.056326    0.779091   -0.852334
     14          1           0       -1.777343   -0.865211    1.201632
     15          1           0       -2.764247    0.552824    1.569453
     16          1           0       -1.171832    1.961769    0.189834
     17          1           0       -0.496464    1.247408    1.664769
     18          1           0        1.689283    1.411642    0.735755
     19          1           0        1.093972    2.058596   -0.804929
     20          1           0        1.884023    0.052948   -2.009726
     21          1           0        3.216207    0.874258   -1.194227
     22          1           0        1.836175   -1.483489   -0.159276
     23          1           0        4.455908   -0.364046    0.558584
     24          1           0        3.042068   -0.244282    1.621333
     25          1           0        3.724583   -1.831047    1.222848
 ---------------------------------------------------------------------

 SCF Done:  E(RB3LYP) =  -422.991195883     A.U. after    1 cycles

 Excitation energies and oscillator strengths:

 Excited State   1:      Singlet-A      7.1096 eV  174.39 nm  f=0.0108  <S**2>=0.000
      36 -> 39        -0.21940
      37 -> 38         0.64084
      37 -> 39        -0.13430
      37 -> 40        -0.11085
 This state for optimization and/or second-order correction.
 Total Energy, E(TD-HF/TD-DFT) =  -422.729921316
 Copying the excited state density for this state as the 1-particle RhoCI density.

 Excited State   2:      Singlet-A      7.1802 eV  172.67 nm  f=0.0135  <S**2>=0.000
      36 -> 38         0.55485
      36 -> 39         0.29710
      37 -> 39        -0.30130

 Excited State   3:      Singlet-A      7.6875 eV  161.28 nm  f=0.0096  <S**2>=0.000
      35 -> 38        -0.16400
      36 -> 38        -0.38080
      36 -> 39         0.45634
      37 -> 38         0.15023
      37 -> 39        -0.25032

 Excited State   4:      Singlet-A      7.8646 eV  157.65 nm  f=0.0021  <S**2>=0.000
      36 -> 38         0.16744
      36 -> 39         0.21473
      36 -> 40         0.15879
      37 -> 38         0.22714
      37 -> 39         0.41229
      37 -> 40         0.37509
      37 -> 42        -0.12990

 Excited State   5:      Singlet-A      8.0601 eV  153.82 nm  f=0.0819  <S**2>=0.000
      35 -> 38         0.65868
      37 -> 40         0.12765

 Excited State   6:      Singlet-A      8.0863 eV  153.33 nm  f=0.0114  <S**2>=0.000
      35 -> 38        -0.11693
      36 -> 39        -0.25776
      36 -> 40         0.12650
      36 -> 42        -0.14034
      37 -> 39        -0.35574
      37 -> 40         0.38534
      37 -> 41         0.11905
      37 -> 42        -0.26882

 Excited State   7:      Singlet-A      8.1774 eV  151.62 nm  f=0.0388  <S**2>=0.000
      36 -> 40         0.45221
      36 -> 41         0.36816
      36 -> 42         0.13289
      36 -> 44         0.13933
      37 -> 40        -0.16601
      37 -> 41        -0.21857
      37 -> 42        -0.16479

 Excited State   8:      Singlet-A      8.4323 eV  147.03 nm  f=0.0218  <S**2>=0.000
      36 -> 39         0.16668
      36 -> 40         0.33231
      36 -> 41        -0.32154
      36 -> 43         0.11929
      36 -> 44        -0.10784
      36 -> 45        -0.13231
      37 -> 40        -0.23048
      37 -> 41         0.36002

 Excited State   9:      Singlet-A      8.5073 eV  145.74 nm  f=0.0214  <S**2>=0.000
      36 -> 40        -0.20407
      36 -> 41         0.32993
      36 -> 42        -0.12505
      37 -> 39         0.13193
      37 -> 40        -0.12530
      37 -> 41         0.35621
      37 -> 42        -0.29949
      37 -> 43         0.14820
      37 -> 44        -0.15041
      37 -> 45        -0.15295

 Excited State  10:      Singlet-A      8.5698 eV  144.68 nm  f=0.0231  <S**2>=0.000
      36 -> 41        -0.10883
      36 -> 43         0.21713
      36 -> 45         0.10400
      37 -> 42        -0.20211
      37 -> 43         0.51084
      37 -> 44         0.19511
      37 -> 45         0.22735

 The electronic state is 1-A.
 Alpha  occ. eigenvalues --  -19.14789 -14.31618 -14.31416 -10.22968 -10.22494
 Alpha  occ. eigenvalues --  -10.20577 -10.20407 -10.19822 -10.19713  -1.03037
 Alpha  occ. eigenvalues --   -0.89785  -0.89210  -0.75892  -0.71570  -0.66214
 Alpha  occ. eigenvalues --   -0.64687  -0.60224  -0.58907  -0.50447  -0.48798
 Alpha  occ. eigenvalues --   -0.47517  -0.47017  -0.45092  -0.43601  -0.42196
 Alpha  occ. eigenvalues --   -0.41340  -0.39430  -0.38688  -0.37589  -0.35855
 Alpha  occ. eigenvalues --   -0.35633  -0.35134  -0.34342  -0.31725  -0.25737
 Alpha  occ. eigenvalues --   -0.22234  -0.21849
 Alpha virt. eigenvalues --    0.08020   0.09581   0.11477   0.12569   0.13009
 Alpha virt. eigenvalues --    0.13681   0.14384   0.14987   0.16143   0.16669
 Alpha virt. eigenvalues --    0.17378   0.17659   0.18334   0.19094   0.19518

 Mulliken charges:
               1
     1  C   -0.181523
     2  N   -0.458036
     3  C   -0.036321
     4  C    0.064632
     5  O   -0.475412
     6  C    0.105140
     7  C   -0.078857
     8  N   -0.226404
     9  C   -0.141011
    10  H    0.115144
    11  H    0.092834
    12  H    0.107398
    13  H    0.206871
    14  H    0.097810
    15  H    0.064595
    16  H    0.038000
    17  H    0.028806
    18  H   -0.007688
    19  H    0.035455
    20  H    0.127423
    21  H    0.098632
    22  H    0.182587
    23  H    0.100836
    24  H    0.057299
    25  H    0.081790
 Sum of Mulliken charges =  -0.00000

 Dipole moment (field-independent basis, Debye):
    X=              1.3182    Y=             -0.5056    Z=             -0.1594  Tot=              1.4208
 Quadrupole moment (field-independent basis, Debye-Ang):
   XX=            -47.5605   YY=            -58.5341   ZZ=            -60.1309
   XY=             -2.0187   XZ=             -1.8690   YZ=             -1.5189

 Summary of Natural Population Analysis:

                                       Natural Population
                Natural  -----------------------------------------------
    Atom  No    Charge         Core      Valence    Rydberg      Total
 -----------------------------------------------------------------------
      C    1   -0.50214      1.99951     4.48912    0.01352     6.50214
      N    2   -0.63272      1.99954     5.61789    0.01529     7.63272
      C    3   -0.29273      1.99933     4.27736    0.01604     6.29273
      C    4   -0.14758      1.99929     4.12583    0.02246     6.14758
      O    5   -0.61309      1.99978     6.59814    0.01518     8.61309
      C    6   -0.14122      1.99928     4.11868    0.02327     6.14122
      C    7   -0.34058      1.99930     4.32259    0.01869     6.34058
      N    8   -0.27307      1.99940     5.26308    0.01060     7.27307
      C    9   -0.56304      1.99944     4.54185    0.02175     6.56304
      H   10    0.22368      0.00000     0.77324    0.00308     0.77632
      H   11    0.20338      0.00000     0.79054    0.00609     0.79662
      H   12    0.22954      0.00000     0.76694    0.00352     0.77046
      H   13    0.35484      0.00000     0.62239    0.02277     0.64516
      H   14    0.22677      0.00000     0.76578    0.00745     0.77323
      H   15    0.19649      0.00000     0.79207    0.01144     0.80351
      H   16    0.17110      0.00000     0.81086    0.01805     0.82890
      H   17    0.16726      0.00000     0.81314    0.01961     0.83274
      H   18    0.13478      0.00000     0.82529    0.03993     0.86522
      H   19    0.16881      0.00000     0.81059    0.02059     0.83119
      H   20    0.25666      0.00000     0.73291    0.01043     0.74334
      H   21    0.22065      0.00000     0.76034    0.01901     0.77935
      H   22    0.33310      0.00000     0.61580    0.05110     0.66690
      H   23    0.22021      0.00000     0.76080    0.01899     0.77979
      H   24    0.18868      0.00000     0.76996    0.04135     0.81132
      H   25    0.21024      0.00000     0.76955    0.02021     0.78976
 =======================================================================
   * Total *    0.00000     17.99486    55.53472    0.47042    74.00000

 Normal termination of Gaussian 16 at Tue Jul  9 19:46:25 2024.
