 Gaussian 16, Revision A.03,

 -------------------------------------------------------
 # opt=CalcFc B3LYP/6-31G** SCRF=(Solvent=water) scf=xqc
 -------------------------------------------------------

 ----------------------------------
 VXPJBVRYAHYMNY-UHFFFAOYSA-N_conf_4
 ----------------------------------
 Symbolic Z-matrix:
 Charge =  0 Multiplicity = 1

 SCF Done:  E(RB3LYP) =  -422.981515100     A.U. after   10 cycles
 SCF Done:  E(RB3LYP) =  -422.984624906     A.U. after   10 cycles
 SCF Done:  E(RB3LYP) =  -422.984781165     A.U. after   10 cycles
 SCF Done:  E(RB3LYP) =  -422.984793575     A.U. after    9 cycles
 SCF Done:  E(RB3LYP) =  -422.984795679     A.U. after    7 cycles
 SCF Done:  E(RB3LYP) =  -422.984795745     A.U. after    6 cycles
 SCF Done:  E(RB3LYP) =  -422.984795753     A.U. after    6 cycles
 Optimization completed.
    -- Stationary point found.
 Normal termination of Gaussian 16 at Tue Jul  9 19:13:30 2024.

 ----------------------------------------------------------------------
 # freq B3LYP/6-31G** SCRF=(Solvent=water) volume NMR pop=NPA density=c
 urrent Geom=AllCheck Guess=Read
 ----------------------------------------------------------------------

 Structure from the checkpoint file:  "VXPJBVRYAHYMNY-UHFFFAOYSA-N_conf_4_1.chk"
 ----------------------------------
 VXPJBVRYAHYMNY-UHFFFAOYSA-N_conf_4
 ----------------------------------
 Charge =  0 Multiplicity = 1

 SCF Done:  E(RB3LYP) =  -422.984795753     A.U. after    1 cycles

      1  C    Isotropic =   157.1619   Anisotropy =    49.9137

      2  N    Isotropic =   234.4018   Anisotropy =    57.4221

      3  C    Isotropic =   142.9571   Anisotropy =    52.1822

      4  C    Isotropic =   125.2503   Anisotropy =    71.4241

      5  O    Isotropic =   314.9052   Anisotropy =    31.9446

      6  C    Isotropic =   125.6569   Anisotropy =    73.8685

      7  C    Isotropic =   142.7633   Anisotropy =    53.0351

      8  N    Isotropic =   235.2262   Anisotropy =    53.3444

      9  C    Isotropic =   157.1654   Anisotropy =    49.4747

     10  H    Isotropic =    29.0840   Anisotropy =     8.7008

     11  H    Isotropic =    29.4027   Anisotropy =     9.7807

     12  H    Isotropic =    29.7862   Anisotropy =     8.4680

     13  H    Isotropic =    31.7072   Anisotropy =    12.9102

     14  H    Isotropic =    29.4416   Anisotropy =     4.4699

     15  H    Isotropic =    28.8460   Anisotropy =     6.1775

     16  H    Isotropic =    28.7626   Anisotropy =     5.7639

     17  H    Isotropic =    27.6693   Anisotropy =     7.4916

     18  H    Isotropic =    28.5268   Anisotropy =     5.9901

     19  H    Isotropic =    27.9194   Anisotropy =     7.2091

     20  H    Isotropic =    29.1380   Anisotropy =     6.2467

     21  H    Isotropic =    29.1613   Anisotropy =     4.0261

     22  H    Isotropic =    31.6428   Anisotropy =    13.4498

     23  H    Isotropic =    29.7753   Anisotropy =     7.8266

     24  H    Isotropic =    29.4187   Anisotropy =     9.7063

     25  H    Isotropic =    29.0966   Anisotropy =     8.2739

  Exact polarizability: 116.809   1.726  99.885   8.111  -1.762  94.097
 Approx polarizability: 115.132   1.130 111.053   7.411  -2.043 102.612

                      1                      2                      3
                      A                      A                      A
 Frequencies --     32.5548                52.3686                56.6293
 Red. masses --      3.5044                 2.6019                 2.5656
 Frc consts  --      0.0022                 0.0042                 0.0048
 IR Inten    --      0.0832                 2.2512                 3.2038

                      4                      5                      6
                      A                      A                      A
 Frequencies --     93.2917               125.3017               131.7766
 Red. masses --      2.5054                 1.6729                 1.6754
 Frc consts  --      0.0128                 0.0155                 0.0171
 IR Inten    --      1.5603                 0.1804                 1.3561

                      7                      8                      9
                      A                      A                      A
 Frequencies --    194.7013               208.6925               251.1999
 Red. masses --      1.4833                 1.5449                 2.9252
 Frc consts  --      0.0331                 0.0396                 0.1088
 IR Inten    --      0.2934                 0.6213                 0.1131

                     10                     11                     12
                      A                      A                      A
 Frequencies --    299.4900               301.7613               369.6436
 Red. masses --      1.9286                 2.3483                 2.6910
 Frc consts  --      0.1019                 0.1260                 0.2166
 IR Inten    --      7.6183                17.8267                26.8932

                     13                     14                     15
                      A                      A                      A
 Frequencies --    414.1035               500.8123               530.6733
 Red. masses --      2.4721                 2.8443                 4.1424
 Frc consts  --      0.2498                 0.4203                 0.6873
 IR Inten    --      8.4641                 9.0719                 3.0009

                     16                     17                     18
                      A                      A                      A
 Frequencies --    745.5665               747.9112               791.4318
 Red. masses --      1.2473                 1.2501                 1.2842
 Frc consts  --      0.4085                 0.4120                 0.4739
 IR Inten    --    215.6491                65.2691                21.7446

                     19                     20                     21
                      A                      A                      A
 Frequencies --    793.5910               941.3437               964.6704
 Red. masses --      1.3189                 3.5741                 2.1279
 Frc consts  --      0.4894                 1.8660                 1.1667
 IR Inten    --     96.7398                20.3715                 0.9763

                     22                     23                     24
                      A                      A                      A
 Frequencies --    970.8746              1023.4364              1025.4152
 Red. masses --      2.2068                 3.2362                 2.4675
 Frc consts  --      1.2256                 1.9971                 1.5286
 IR Inten    --      6.5313                 8.9125                 4.3008

                     25                     26                     27
                      A                      A                      A
 Frequencies --   1050.1711              1060.0691              1106.3604
 Red. masses --      1.7934                 1.5068                 3.5192
 Frc consts  --      1.1653                 0.9977                 2.5380
 IR Inten    --     15.3225                46.4719               240.1893

                     28                     29                     30
                      A                      A                      A
 Frequencies --   1146.8306              1147.3221              1173.0645
 Red. masses --      1.9566                 1.9153                 2.1326
 Frc consts  --      1.5162                 1.4854                 1.7290
 IR Inten    --      4.6074                10.3376                 8.8976

                     31                     32                     33
                      A                      A                      A
 Frequencies --   1175.0490              1208.9519              1238.0033
 Red. masses --      2.1725                 1.7651                 1.9414
 Frc consts  --      1.7674                 1.5199                 1.7531
 IR Inten    --     68.0345                54.7245                 6.0308

                     34                     35                     36
                      A                      A                      A
 Frequencies --   1292.9515              1315.3861              1333.7627
 Red. masses --      1.3329                 1.3140                 1.1668
 Frc consts  --      1.3129                 1.3396                 1.2230
 IR Inten    --     14.1803                 6.7644                13.7366

                     37                     38                     39
                      A                      A                      A
 Frequencies --   1339.0937              1350.9483              1357.1512
 Red. masses --      1.1787                 1.1849                 1.1034
 Frc consts  --      1.2453                 1.2741                 1.1974
 IR Inten    --     10.1575                 3.3827                 2.5894

                     40                     41                     42
                      A                      A                      A
 Frequencies --   1417.6414              1432.0483              1461.9100
 Red. masses --      1.2860                 1.3162                 1.1370
 Frc consts  --      1.5227                 1.5903                 1.4317
 IR Inten    --      6.5009                 0.3031                 2.7929

                     43                     44                     45
                      A                      A                      A
 Frequencies --   1462.0331              1483.7404              1487.0245
 Red. masses --      1.1361                 1.0981                 1.1421
 Frc consts  --      1.4308                 1.4243                 1.4879
 IR Inten    --      0.8847                 4.1926                 4.0759

                     46                     47                     48
                      A                      A                      A
 Frequencies --   1491.6093              1494.9814              1499.7825
 Red. masses --      1.1881                 1.1392                 1.0797
 Frc consts  --      1.5574                 1.5001                 1.4310
 IR Inten    --      5.8237                 0.5850                21.7513

                     49                     50                     51
                      A                      A                      A
 Frequencies --   1500.5168              1508.7589              1519.9543
 Red. masses --      1.0956                 1.0943                 1.0863
 Frc consts  --      1.4534                 1.4677                 1.4786
 IR Inten    --      7.7687                 3.3354                 0.7587

                     52                     53                     54
                      A                      A                      A
 Frequencies --   1527.6749              1527.9297              2978.5354
 Red. masses --      1.0578                 1.0565                 1.0542
 Frc consts  --      1.4545                 1.4533                 5.5103
 IR Inten    --     19.5891                 9.0308               104.2174

                     55                     56                     57
                      A                      A                      A
 Frequencies --   2979.5880              3007.1861              3026.4532
 Red. masses --      1.0538                 1.0649                 1.0590
 Frc consts  --      5.5120                 5.6740                 5.7148
 IR Inten    --     91.8161                70.9517                19.1767

                     58                     59                     60
                      A                      A                      A
 Frequencies --   3031.4653              3033.0289              3062.9278
 Red. masses --      1.0594                 1.0590                 1.0992
 Frc consts  --      5.7361                 5.7396                 6.0759
 IR Inten    --     14.9662               154.2828                16.6438

                     61                     62                     63
                      A                      A                      A
 Frequencies --   3064.5439              3065.0933              3071.0086
 Red. masses --      1.0803                 1.0852                 1.1005
 Frc consts  --      5.9776                 6.0066                 6.1149
 IR Inten    --     63.9355                62.9609                20.5415

                     64                     65                     66
                      A                      A                      A
 Frequencies --   3085.1717              3094.2649              3108.5605
 Red. masses --      1.1088                 1.1025                 1.1027
 Frc consts  --      6.2179                 6.2191                 6.2781
 IR Inten    --    107.6321               113.8891                50.6445

                     67                     68                     69
                      A                      A                      A
 Frequencies --   3108.9380              3512.1221              3513.0461
 Red. masses --      1.1026                 1.0742                 1.0742
 Frc consts  --      6.2788                 7.8066                 7.8106
 IR Inten    --     50.2595                 0.5127                 0.3732

 - Thermochemistry -
 -------------------
 Temperature   298.150 Kelvin.  Pressure   1.00000 Atm.
 Atom     1 has atomic number  6 and mass  12.00000

 Molecular mass:   132.12626 amu.
 Principal axes and moments of inertia in atomic units:
                           1         2         3
     Eigenvalues --   489.700263427.465263641.94265
           X            0.99991   0.00901   0.00943
           Y           -0.00899   0.99996  -0.00265
           Z           -0.00945   0.00257   0.99995
 This molecule is an asymmetric top.
 Rotational symmetry number  1.
 Warning -- assumption of classical behavior for rotation
           may cause significant error
 Rotational temperatures (Kelvin)      0.17687     0.02527     0.02378
 Rotational constants (GHZ):           3.68540     0.52655     0.49554
 Zero-point vibrational energy     600644.4 (Joules/Mol)
                                  143.55745 (Kcal/Mol)
 Warning -- explicit consideration of  15 degrees of freedom as
           vibrations may cause significant error
 Vibrational temperatures:     46.84    75.35    81.48   134.23   180.28
          (Kelvin)            189.60   280.13   300.26   361.42   430.90
                              434.17   531.83   595.80   720.56   763.52
                             1072.70  1076.08  1138.69  1141.80  1354.38
                             1387.95  1396.87  1472.50  1475.34  1510.96
                             1525.20  1591.81  1650.03  1650.74  1687.78
                             1690.63  1739.41  1781.21  1860.27  1892.55
                             1918.99  1926.66  1943.71  1952.64  2039.67
                             2060.40  2103.36  2103.54  2134.77  2139.50
                             2146.09  2150.94  2157.85  2158.91  2170.77
                             2186.88  2197.98  2198.35  4285.45  4286.96
                             4326.67  4354.39  4361.60  4363.85  4406.87
                             4409.20  4409.99  4418.50  4438.87  4451.96
                             4472.53  4473.07  5053.16  5054.49

 Zero-point correction=                           0.228773 (Hartree/Particle)
 Thermal correction to Energy=                    0.240615
 Thermal correction to Enthalpy=                  0.241559
 Thermal correction to Gibbs Free Energy=         0.189535
 Sum of electronic and zero-point Energies=           -422.756022
 Sum of electronic and thermal Energies=              -422.744181
 Sum of electronic and thermal Enthalpies=            -422.743237
 Sum of electronic and thermal Free Energies=         -422.795261

                     E (Thermal)             CV                S
                      KCal/Mol        Cal/Mol-Kelvin    Cal/Mol-Kelvin
 Total                  150.988             40.806            109.493
 Electronic               0.000              0.000              0.000
 Translational            0.889              2.981             40.548
 Rotational               0.889              2.981             30.192
 Vibrational            149.211             34.845             38.752
 Vibration     1          0.594              1.983              5.667
 Vibration     2          0.596              1.977              4.726
 Vibration     3          0.596              1.975              4.571
 Vibration     4          0.602              1.954              3.590
 Vibration     5          0.610              1.928              3.017
 Vibration     6          0.612              1.922              2.920
 Vibration     7          0.635              1.847              2.183
 Vibration     8          0.642              1.827              2.055
 Vibration     9          0.663              1.761              1.722
 Vibration    10          0.692              1.675              1.420
 Vibration    11          0.694              1.670              1.407
 Vibration    12          0.742              1.535              1.081
 Vibration    13          0.778              1.440              0.912
 Vibration    14          0.856              1.248              0.656
 Vibration    15          0.886              1.182              0.586

 Optimization completed.
    -- Stationary point found.
 Normal termination of Gaussian 16 at Tue Jul  9 19:31:17 2024.
 Gaussian 16:  EM64L-G16RevA.03 25-Dec-2016

 ----------------------------------------------------------------------
 # TD(NStates=10, Root=1) B3LYP/6-31G** SCRF=(Solvent=water) volume pop
 =NPA density=current Geom=AllCheck Guess=Read
 ----------------------------------------------------------------------

 Structure from the checkpoint file:  "VXPJBVRYAHYMNY-UHFFFAOYSA-N_conf_4_2.chk"
 ----------------------------------
 VXPJBVRYAHYMNY-UHFFFAOYSA-N_conf_4
 ----------------------------------
 Charge =  0 Multiplicity = 1

                         Standard orientation:
 ---------------------------------------------------------------------
 Center     Atomic      Atomic             Coordinates (Angstroms)
 Number     Number       Type             X           Y           Z
 ---------------------------------------------------------------------
      1          6           0       -4.076574    0.289330   -0.552859
      2          7           0       -3.070096    0.931983    0.293428
      3          6           0       -1.984999    0.057871    0.738007
      4          6           0       -1.045996   -0.468303   -0.361388
      5          8           0       -0.031473   -1.313817    0.182889
      6          6           0        1.161545   -0.637782    0.583498
      7          6           0        2.190610   -0.608271   -0.559924
      8          7           0        3.486478   -0.009170   -0.242900
      9          6           0        3.458487    1.432352    0.008461
     10          1           0       -3.705157   -0.122160   -1.505095
     11          1           0       -4.861713    1.014143   -0.789540
     12          1           0       -4.540634   -0.533356    0.002990
     13          1           0       -2.678554    1.733747   -0.196135
     14          1           0       -2.424152   -0.801394    1.260363
     15          1           0       -1.387099    0.604822    1.477731
     16          1           0       -0.604380    0.374524   -0.913482
     17          1           0       -1.600036   -1.077218   -1.083009
     18          1           0        1.573881   -1.197912    1.431896
     19          1           0        0.934904    0.375488    0.939262
     20          1           0        2.354093   -1.642225   -0.887512
     21          1           0        1.766446   -0.068672   -1.416545
     22          1           0        3.889599   -0.484883    0.561507
     23          1           0        3.093943    1.946368   -0.888225
     24          1           0        4.477398    1.782755    0.200259
     25          1           0        2.830129    1.755638    0.853952
 ---------------------------------------------------------------------

 SCF Done:  E(RB3LYP) =  -422.984795753     A.U. after    1 cycles

 Excitation energies and oscillator strengths:

 Excited State   1:      Singlet-A      6.7855 eV  182.72 nm  f=0.0045  <S**2>=0.000
      36 -> 39        -0.25155
      37 -> 38         0.64977
 This state for optimization and/or second-order correction.
 Total Energy, E(TD-HF/TD-DFT) =  -422.735432678
 Copying the excited state density for this state as the 1-particle RhoCI density.

 Excited State   2:      Singlet-A      6.9403 eV  178.64 nm  f=0.0024  <S**2>=0.000
      36 -> 38        -0.46800
      37 -> 39         0.50648

 Excited State   3:      Singlet-A      7.1756 eV  172.79 nm  f=0.0059  <S**2>=0.000
      37 -> 38         0.10274
      37 -> 39        -0.17795
      37 -> 40         0.66338

 Excited State   4:      Singlet-A      7.5826 eV  163.51 nm  f=0.0031  <S**2>=0.000
      36 -> 38         0.45026
      36 -> 39        -0.19884
      36 -> 40         0.34553
      37 -> 39         0.31858
      37 -> 40         0.14425

 Excited State   5:      Singlet-A      7.6916 eV  161.19 nm  f=0.0059  <S**2>=0.000
      36 -> 38         0.24524
      36 -> 39         0.42039
      36 -> 40        -0.34533
      37 -> 38         0.12529
      37 -> 39         0.31536

 Excited State   6:      Singlet-A      7.7414 eV  160.16 nm  f=0.0026  <S**2>=0.000
      35 -> 38        -0.11161
      36 -> 39         0.39192
      36 -> 40         0.49083
      37 -> 38         0.20387

 Excited State   7:      Singlet-A      7.8887 eV  157.17 nm  f=0.0150  <S**2>=0.000
      36 -> 41         0.12923
      36 -> 43         0.22073
      37 -> 41         0.63109

 Excited State   8:      Singlet-A      8.0041 eV  154.90 nm  f=0.0376  <S**2>=0.000
      36 -> 39        -0.13120
      36 -> 41         0.30556
      36 -> 42        -0.12992
      37 -> 42         0.51985
      37 -> 43         0.29618

 Excited State   9:      Singlet-A      8.1047 eV  152.98 nm  f=0.0247  <S**2>=0.000
      36 -> 41         0.22819
      37 -> 41        -0.10219
      37 -> 42        -0.42672
      37 -> 43         0.47411

 Excited State  10:      Singlet-A      8.4263 eV  147.14 nm  f=0.0297  <S**2>=0.000
      36 -> 42         0.54861
      36 -> 43        -0.17664
      37 -> 44         0.34795
      37 -> 45         0.11686

 The electronic state is 1-A.
 Alpha  occ. eigenvalues --  -19.14677 -14.31788 -14.31788 -10.22482 -10.22479
 Alpha  occ. eigenvalues --  -10.20239 -10.20229 -10.19884 -10.19876  -1.02402
 Alpha  occ. eigenvalues --   -0.89608  -0.89399  -0.75029  -0.71329  -0.67222
 Alpha  occ. eigenvalues --   -0.64456  -0.61024  -0.58338  -0.50239  -0.49068
 Alpha  occ. eigenvalues --   -0.48016  -0.46811  -0.43920  -0.43544  -0.42288
 Alpha  occ. eigenvalues --   -0.41687  -0.39107  -0.38881  -0.37304  -0.36172
 Alpha  occ. eigenvalues --   -0.35801  -0.35485  -0.34027  -0.30804  -0.27333
 Alpha  occ. eigenvalues --   -0.22155  -0.20745
 Alpha virt. eigenvalues --    0.07997   0.09248   0.09430   0.11920   0.12377
 Alpha virt. eigenvalues --    0.12823   0.14695   0.15381   0.16064   0.16517
 Alpha virt. eigenvalues --    0.17394   0.17412   0.17642   0.19100   0.20288

 Mulliken charges:
               1
     1  C   -0.170752
     2  N   -0.311571
     3  C   -0.076600
     4  C    0.054190
     5  O   -0.447785
     6  C    0.056853
     7  C   -0.080890
     8  N   -0.360328
     9  C   -0.167238
    10  H    0.085657
    11  H    0.081006
    12  H    0.113103
    13  H    0.100292
    14  H    0.114273
    15  H    0.077535
    16  H    0.067251
    17  H    0.091100
    18  H    0.085897
    19  H    0.061780
    20  H    0.106929
    21  H    0.101896
    22  H    0.148179
    23  H    0.105673
    24  H    0.087285
    25  H    0.076267
 Sum of Mulliken charges =  -0.00000

 Dipole moment (field-independent basis, Debye):
    X=             -0.3194    Y=              0.4273    Z=             -0.1457  Tot=              0.5530
 Quadrupole moment (field-independent basis, Debye-Ang):
   XX=            -59.8490   YY=            -62.1223   ZZ=            -60.1641
   XY=              2.5346   XZ=              4.1292   YZ=             -0.6959

 Summary of Natural Population Analysis:

                                       Natural Population
                Natural  -----------------------------------------------
    Atom  No    Charge         Core      Valence    Rydberg      Total
 -----------------------------------------------------------------------
      C    1   -0.53365      1.99947     4.51605    0.01812     6.53365
      N    2   -0.47545      1.99950     5.46066    0.01530     7.47545
      C    3   -0.33856      1.99935     4.31582    0.02339     6.33856
      C    4   -0.14510      1.99920     4.12194    0.02396     6.14510
      O    5   -0.52366      1.99981     6.51012    0.01373     8.52366
      C    6   -0.14414      1.99920     4.12262    0.02231     6.14414
      C    7   -0.33061      1.99935     4.30874    0.02252     6.33061
      N    8   -0.52698      1.99952     5.51254    0.01492     7.52698
      C    9   -0.52548      1.99948     4.50893    0.01706     6.52548
      H   10    0.20264      0.00000     0.77792    0.01944     0.79736
      H   11    0.21033      0.00000     0.77464    0.01503     0.78967
      H   12    0.22629      0.00000     0.76505    0.00866     0.77371
      H   13    0.27307      0.00000     0.66194    0.06499     0.72693
      H   14    0.23511      0.00000     0.75558    0.00931     0.76489
      H   15    0.21037      0.00000     0.77098    0.01865     0.78963
      H   16    0.18500      0.00000     0.79148    0.02351     0.81500
      H   17    0.21404      0.00000     0.77205    0.01391     0.78596
      H   18    0.21124      0.00000     0.77475    0.01401     0.78876
      H   19    0.17788      0.00000     0.79657    0.02554     0.82212
      H   20    0.23646      0.00000     0.75462    0.00892     0.76354
      H   21    0.22117      0.00000     0.76726    0.01157     0.77883
      H   22    0.31157      0.00000     0.63933    0.04910     0.68843
      H   23    0.22028      0.00000     0.77004    0.00969     0.77972
      H   24    0.21525      0.00000     0.77265    0.01209     0.78475
      H   25    0.19290      0.00000     0.78794    0.01916     0.80710
 =======================================================================
   * Total *   -0.00000     17.99488    55.51022    0.49490    74.00000

 Normal termination of Gaussian 16 at Tue Jul  9 19:48:17 2024.
