 Gaussian 16, Revision A.03,

 -------------------------------------------------------
 # opt=CalcFc B3LYP/6-31G** SCRF=(Solvent=water) scf=xqc
 -------------------------------------------------------

 ----------------------------------
 VXPJBVRYAHYMNY-UHFFFAOYSA-N_conf_2
 ----------------------------------
 Symbolic Z-matrix:
 Charge =  0 Multiplicity = 1

 SCF Done:  E(RB3LYP) =  -422.984826019     A.U. after   11 cycles
 SCF Done:  E(RB3LYP) =  -422.987953838     A.U. after    9 cycles
 SCF Done:  E(RB3LYP) =  -422.988144621     A.U. after    9 cycles
 SCF Done:  E(RB3LYP) =  -422.988146611     A.U. after    9 cycles
 SCF Done:  E(RB3LYP) =  -422.988147042     A.U. after    8 cycles
 SCF Done:  E(RB3LYP) =  -422.988147370     A.U. after    8 cycles
 Optimization completed.
    -- Stationary point found.
 Normal termination of Gaussian 16 at Tue Jul  9 19:10:01 2024.

 ----------------------------------------------------------------------
 # freq B3LYP/6-31G** SCRF=(Solvent=water) volume NMR pop=NPA density=c
 urrent Geom=AllCheck Guess=Read
 ----------------------------------------------------------------------

 Structure from the checkpoint file:  "VXPJBVRYAHYMNY-UHFFFAOYSA-N_conf_2_1.chk"
 ----------------------------------
 VXPJBVRYAHYMNY-UHFFFAOYSA-N_conf_2
 ----------------------------------
 Charge =  0 Multiplicity = 1

 SCF Done:  E(RB3LYP) =  -422.988147370     A.U. after    1 cycles

      1  C    Isotropic =   159.1261   Anisotropy =    47.9493

      2  N    Isotropic =   240.6510   Anisotropy =    41.9256

      3  C    Isotropic =   141.0398   Anisotropy =    33.2649

      4  C    Isotropic =   127.6300   Anisotropy =    73.6975

      5  O    Isotropic =   303.3393   Anisotropy =    36.4503

      6  C    Isotropic =   122.5948   Anisotropy =    75.0695

      7  C    Isotropic =   143.5516   Anisotropy =    47.6031

      8  N    Isotropic =   234.9562   Anisotropy =    54.7799

      9  C    Isotropic =   157.0092   Anisotropy =    49.8520

     10  H    Isotropic =    29.4814   Anisotropy =     9.7701

     11  H    Isotropic =    29.0127   Anisotropy =     7.9692

     12  H    Isotropic =    29.9719   Anisotropy =     9.1837

     13  H    Isotropic =    30.8965   Anisotropy =    12.5711

     14  H    Isotropic =    28.7923   Anisotropy =     8.2428

     15  H    Isotropic =    29.4814   Anisotropy =     7.0615

     16  H    Isotropic =    28.0805   Anisotropy =     4.9779

     17  H    Isotropic =    28.3725   Anisotropy =     6.4504

     18  H    Isotropic =    27.8409   Anisotropy =     6.6715

     19  H    Isotropic =    28.2464   Anisotropy =     6.1081

     20  H    Isotropic =    29.1333   Anisotropy =     6.2263

     21  H    Isotropic =    28.9256   Anisotropy =     4.8039

     22  H    Isotropic =    31.6425   Anisotropy =    13.3200

     23  H    Isotropic =    29.3973   Anisotropy =     9.7307

     24  H    Isotropic =    29.0534   Anisotropy =     8.4741

     25  H    Isotropic =    29.7686   Anisotropy =     7.9618

  Exact polarizability: 112.378   1.270 100.272  -3.052  -0.802  99.862
 Approx polarizability: 111.357   1.530 107.761  -2.591   1.093 111.007

                      1                      2                      3
                      A                      A                      A
 Frequencies --     20.4364                48.0358                57.5525
 Red. masses --      3.3185                 2.6389                 3.0470
 Frc consts  --      0.0008                 0.0036                 0.0059
 IR Inten    --      0.3143                 0.1555                 0.6729

                      4                      5                      6
                      A                      A                      A
 Frequencies --     88.7850               121.8040               147.1785
 Red. masses --      2.5431                 1.7554                 1.9990
 Frc consts  --      0.0118                 0.0153                 0.0255
 IR Inten    --      5.8712                 0.5705                 4.1382

                      7                      8                      9
                      A                      A                      A
 Frequencies --    200.5135               238.4431               248.0043
 Red. masses --      1.5032                 1.4671                 2.0722
 Frc consts  --      0.0356                 0.0491                 0.0751
 IR Inten    --      0.6752                 1.7422                 1.8224

                     10                     11                     12
                      A                      A                      A
 Frequencies --    295.1824               323.6904               360.9550
 Red. masses --      2.2225                 2.6586                 2.3718
 Frc consts  --      0.1141                 0.1641                 0.1821
 IR Inten    --     10.5414                13.7567                18.1945

                     13                     14                     15
                      A                      A                      A
 Frequencies --    416.1767               488.9141               591.6837
 Red. masses --      2.1018                 2.8138                 2.7786
 Frc consts  --      0.2145                 0.3963                 0.5731
 IR Inten    --      7.5383                 4.1179                 2.6136

                     16                     17                     18
                      A                      A                      A
 Frequencies --    747.8285               767.2493               795.7078
 Red. masses --      1.2631                 1.5240                 1.2988
 Frc consts  --      0.4162                 0.5286                 0.4845
 IR Inten    --    143.1654               172.2296                72.3921

                     19                     20                     21
                      A                      A                      A
 Frequencies --    833.5410               894.4586               963.3832
 Red. masses --      2.2576                 1.8234                 2.1204
 Frc consts  --      0.9242                 0.8595                 1.1595
 IR Inten    --     12.9265                23.1085                 3.0040

                     22                     23                     24
                      A                      A                      A
 Frequencies --   1001.8922              1014.0384              1028.7411
 Red. masses --      2.7659                 1.6633                 2.8626
 Frc consts  --      1.6358                 1.0077                 1.7849
 IR Inten    --     22.0394                 2.6617                13.1968

                     25                     26                     27
                      A                      A                      A
 Frequencies --   1055.2356              1069.2051              1130.4597
 Red. masses --      1.6500                 1.8409                 4.6558
 Frc consts  --      1.0825                 1.2400                 3.5055
 IR Inten    --     64.9911                33.8138               224.4451

                     28                     29                     30
                      A                      A                      A
 Frequencies --   1147.9823              1158.2690              1165.0714
 Red. masses --      2.1627                 2.0811                 1.6052
 Frc consts  --      1.6792                 1.6450                 1.2838
 IR Inten    --     14.9062                10.1743                43.8729

                     31                     32                     33
                      A                      A                      A
 Frequencies --   1174.6235              1195.0317              1231.9086
 Red. masses --      2.1309                 1.7666                 1.9349
 Frc consts  --      1.7323                 1.4864                 1.7301
 IR Inten    --     39.7099                 5.4945                17.2340

                     34                     35                     36
                      A                      A                      A
 Frequencies --   1262.9329              1304.7725              1329.6275
 Red. masses --      1.1383                 1.3016                 1.2668
 Frc consts  --      1.0697                 1.3056                 1.3195
 IR Inten    --     13.3765                 6.9603                 9.2449

                     37                     38                     39
                      A                      A                      A
 Frequencies --   1340.6913              1350.7021              1392.6584
 Red. masses --      1.1747                 1.1594                 1.2550
 Frc consts  --      1.2440                 1.2463                 1.4341
 IR Inten    --     13.5600                 3.8772                22.2216

                     40                     41                     42
                      A                      A                      A
 Frequencies --   1413.7034              1432.8372              1460.8246
 Red. masses --      1.3096                 1.3353                 1.1323
 Frc consts  --      1.5421                 1.6151                 1.4236
 IR Inten    --     13.5311                 2.2450                 1.2235

                     43                     44                     45
                      A                      A                      A
 Frequencies --   1462.1952              1479.9021              1487.5734
 Red. masses --      1.1364                 1.1145                 1.1130
 Frc consts  --      1.4315                 1.4381                 1.4511
 IR Inten    --      1.8849                 7.1206                 3.8317

                     46                     47                     48
                      A                      A                      A
 Frequencies --   1492.6317              1494.1223              1497.1027
 Red. masses --      1.1619                 1.1983                 1.0802
 Frc consts  --      1.5252                 1.5761                 1.4265
 IR Inten    --      3.3072                14.7177                 1.0276

                     49                     50                     51
                      A                      A                      A
 Frequencies --   1499.9879              1509.8859              1525.3885
 Red. masses --      1.0836                 1.0938                 1.0670
 Frc consts  --      1.4365                 1.4692                 1.4627
 IR Inten    --     14.9170                 5.2510                16.8052

                     52                     53                     54
                      A                      A                      A
 Frequencies --   1527.6144              1530.8385              2972.6433
 Red. masses --      1.0570                 1.0815                 1.0554
 Frc consts  --      1.4533                 1.4932                 5.4946
 IR Inten    --     13.9883                13.7128                87.6244

                     55                     56                     57
                      A                      A                      A
 Frequencies --   2979.9407              2992.1788              3010.7606
 Red. masses --      1.0541                 1.0547                 1.0611
 Frc consts  --      5.5148                 5.5638                 5.6670
 IR Inten    --     84.0549                67.7171               120.4881

                     58                     59                     60
                      A                      A                      A
 Frequencies --   3022.6764              3034.3794              3039.2197
 Red. masses --      1.0950                 1.0596                 1.0711
 Frc consts  --      5.8943                 5.7480                 5.8292
 IR Inten    --     23.8718                35.0740               153.9988

                     61                     62                     63
                      A                      A                      A
 Frequencies --   3062.2512              3063.5703              3065.1991
 Red. masses --      1.0991                 1.0792                 1.0821
 Frc consts  --      6.0724                 5.9677                 5.9900
 IR Inten    --     21.9946                69.8887                61.1161

                     64                     65                     66
                      A                      A                      A
 Frequencies --   3081.8052              3085.7626              3108.8319
 Red. masses --      1.1045                 1.1074                 1.1026
 Frc consts  --      6.1805                 6.2128                 6.2788
 IR Inten    --     64.5346                98.5323                45.5906

                     67                     68                     69
                      A                      A                      A
 Frequencies --   3108.8774              3511.1372              3513.4816
 Red. masses --      1.1024                 1.0741                 1.0736
 Frc consts  --      6.2775                 7.8017                 7.8082
 IR Inten    --     55.7933                 0.5028                 1.6465

 - Thermochemistry -
 -------------------
 Temperature   298.150 Kelvin.  Pressure   1.00000 Atm.
 Atom     1 has atomic number  6 and mass  12.00000

 Molecular mass:   132.12626 amu.
 Principal axes and moments of inertia in atomic units:
                           1         2         3
     Eigenvalues --   428.264653408.383133523.02305
           X            1.00000   0.00023  -0.00131
           Y           -0.00027   0.99971  -0.02418
           Z            0.00131   0.02418   0.99971
 This molecule is an asymmetric top.
 Rotational symmetry number  1.
 Rotational temperatures (Kelvin)      0.20224     0.02541     0.02459
 Rotational constants (GHZ):           4.21408     0.52950     0.51227
 Zero-point vibrational energy     600948.2 (Joules/Mol)
                                  143.63006 (Kcal/Mol)
 Warning -- explicit consideration of  15 degrees of freedom as
           vibrations may cause significant error
 Vibrational temperatures:     29.40    69.11    82.81   127.74   175.25
          (Kelvin)            211.76   288.49   343.07   356.82   424.70
                              465.72   519.33   598.79   703.44   851.30
                             1075.96  1103.90  1144.85  1199.28  1286.93
                             1386.09  1441.50  1458.98  1480.13  1518.25
                             1538.35  1626.48  1651.69  1666.49  1676.28
                             1690.02  1719.38  1772.44  1817.08  1877.28
                             1913.04  1928.96  1943.36  2003.72  2034.00
                             2061.53  2101.80  2103.77  2129.25  2140.29
                             2147.56  2149.71  2154.00  2158.15  2172.39
                             2194.69  2197.90  2202.54  4276.97  4287.47
                             4305.08  4331.81  4348.96  4365.80  4372.76
                             4405.90  4407.79  4410.14  4434.03  4439.72
                             4472.92  4472.98  5051.74  5055.12

 Zero-point correction=                           0.228889 (Hartree/Particle)
 Thermal correction to Energy=                    0.240644
 Thermal correction to Enthalpy=                  0.241588
 Thermal correction to Gibbs Free Energy=         0.189394
 Sum of electronic and zero-point Energies=           -422.759258
 Sum of electronic and thermal Energies=              -422.747503
 Sum of electronic and thermal Enthalpies=            -422.746559
 Sum of electronic and thermal Free Energies=         -422.798754

                     E (Thermal)             CV                S
                      KCal/Mol        Cal/Mol-Kelvin    Cal/Mol-Kelvin
 Total                  151.007             40.536            109.853
 Electronic               0.000              0.000              0.000
 Translational            0.889              2.981             40.548
 Rotational               0.889              2.981             30.021
 Vibrational            149.229             34.574             39.284
 Vibration     1          0.593              1.986              6.591
 Vibration     2          0.595              1.978              4.897
 Vibration     3          0.596              1.974              4.539
 Vibration     4          0.602              1.957              3.687
 Vibration     5          0.609              1.931              3.072
 Vibration     6          0.617              1.906              2.708
 Vibration     7          0.638              1.839              2.128
 Vibration     8          0.656              1.782              1.814
 Vibration     9          0.662              1.766              1.745
 Vibration    10          0.689              1.683              1.444
 Vibration    11          0.708              1.628              1.291
 Vibration    12          0.735              1.553              1.118
 Vibration    13          0.779              1.435              0.905
 Vibration    14          0.845              1.275              0.686
 Vibration    15          0.949              1.049              0.464

 Optimization completed.
    -- Stationary point found.
 Normal termination of Gaussian 16 at Tue Jul  9 19:28:11 2024.
 Gaussian 16:  EM64L-G16RevA.03 25-Dec-2016

 ----------------------------------------------------------------------
 # TD(NStates=10, Root=1) B3LYP/6-31G** SCRF=(Solvent=water) volume pop
 =NPA density=current Geom=AllCheck Guess=Read
 ----------------------------------------------------------------------

 Structure from the checkpoint file:  "VXPJBVRYAHYMNY-UHFFFAOYSA-N_conf_2_2.chk"
 ----------------------------------
 VXPJBVRYAHYMNY-UHFFFAOYSA-N_conf_2
 ----------------------------------
 Charge =  0 Multiplicity = 1

                         Standard orientation:
 ---------------------------------------------------------------------
 Center     Atomic      Atomic             Coordinates (Angstroms)
 Number     Number       Type             X           Y           Z
 ---------------------------------------------------------------------
      1          6           0       -3.550992    1.229023   -0.066980
      2          7           0       -3.204171   -0.148690   -0.417544
      3          6           0       -2.382232   -0.836341    0.579674
      4          6           0       -0.944180   -0.333891    0.719859
      5          8           0       -0.309743   -0.501511   -0.545725
      6          6           0        0.973750    0.107497   -0.658595
      7          6           0        2.092836   -0.750064   -0.040220
      8          7           0        3.453523   -0.246214   -0.226411
      9          6           0        3.761776    0.988715    0.496451
     10          1           0       -4.149013    1.665184   -0.873072
     11          1           0       -2.694705    1.899886    0.112916
     12          1           0       -4.165135    1.228609    0.840846
     13          1           0       -2.682212   -0.144284   -1.291583
     14          1           0       -2.344026   -1.900641    0.315448
     15          1           0       -2.877125   -0.765006    1.556043
     16          1           0       -0.919202    0.726780    1.013514
     17          1           0       -0.430637   -0.905240    1.507467
     18          1           0        0.954068    1.113050   -0.213897
     19          1           0        1.161924    0.222360   -1.732966
     20          1           0        2.027713   -1.752319   -0.481583
     21          1           0        1.922399   -0.865626    1.037215
     22          1           0        3.628771   -0.109027   -1.219658
     23          1           0        4.808122    1.256093    0.319192
     24          1           0        3.144740    1.861940    0.230660
     25          1           0        3.641066    0.815026    1.571811
 ---------------------------------------------------------------------

 SCF Done:  E(RB3LYP) =  -422.988147370     A.U. after    1 cycles

 Excitation energies and oscillator strengths:

 Excited State   1:      Singlet-A      6.8992 eV  179.71 nm  f=0.0054  <S**2>=0.000
      37 -> 38        -0.49053
      37 -> 39         0.49311
 This state for optimization and/or second-order correction.
 Total Energy, E(TD-HF/TD-DFT) =  -422.734607526
 Copying the excited state density for this state as the 1-particle RhoCI density.

 Excited State   2:      Singlet-A      7.1227 eV  174.07 nm  f=0.0078  <S**2>=0.000
      36 -> 38         0.64220
      36 -> 39         0.20913
      36 -> 40         0.14983

 Excited State   3:      Singlet-A      7.2465 eV  171.10 nm  f=0.0044  <S**2>=0.000
      36 -> 38         0.10695
      37 -> 38         0.46914
      37 -> 39         0.48812

 Excited State   4:      Singlet-A      7.7869 eV  159.22 nm  f=0.0082  <S**2>=0.000
      36 -> 38        -0.17354
      36 -> 39         0.65408
      36 -> 40        -0.15712

 Excited State   5:      Singlet-A      7.8936 eV  157.07 nm  f=0.0266  <S**2>=0.000
      37 -> 40         0.51567
      37 -> 41        -0.41163
      37 -> 43        -0.20004

 Excited State   6:      Singlet-A      8.0241 eV  154.52 nm  f=0.0139  <S**2>=0.000
      36 -> 38        -0.19765
      36 -> 39         0.12738
      36 -> 40         0.57421
      36 -> 41         0.14874
      36 -> 42        -0.10791
      36 -> 43         0.25186

 Excited State   7:      Singlet-A      8.1835 eV  151.51 nm  f=0.0061  <S**2>=0.000
      37 -> 40         0.35119
      37 -> 41         0.52208
      37 -> 42        -0.16322
      37 -> 43        -0.17231
      37 -> 45        -0.14490

 Excited State   8:      Singlet-A      8.3027 eV  149.33 nm  f=0.0306  <S**2>=0.000
      36 -> 41         0.62426
      36 -> 42         0.19966
      36 -> 43        -0.19948
      36 -> 45         0.13315

 Excited State   9:      Singlet-A      8.3709 eV  148.11 nm  f=0.0212  <S**2>=0.000
      35 -> 38         0.58920
      37 -> 42        -0.31933
      37 -> 43        -0.14500

 Excited State  10:      Singlet-A      8.4285 eV  147.10 nm  f=0.0057  <S**2>=0.000
      35 -> 38         0.31446
      37 -> 38         0.11650
      37 -> 40         0.19219
      37 -> 41         0.13323
      37 -> 42         0.51221
      37 -> 43         0.17241
      37 -> 45         0.10190

 The electronic state is 1-A.
 Alpha  occ. eigenvalues --  -19.14881 -14.31821 -14.31402 -10.22524 -10.22518
 Alpha  occ. eigenvalues --  -10.20403 -10.20291 -10.19891 -10.19711  -1.02739
 Alpha  occ. eigenvalues --   -0.89626  -0.89215  -0.75327  -0.71387  -0.66840
 Alpha  occ. eigenvalues --   -0.64867  -0.60722  -0.58208  -0.49807  -0.49559
 Alpha  occ. eigenvalues --   -0.47586  -0.46935  -0.44858  -0.43160  -0.41968
 Alpha  occ. eigenvalues --   -0.41673  -0.39495  -0.38758  -0.37050  -0.36172
 Alpha  occ. eigenvalues --   -0.35620  -0.35394  -0.34412  -0.31232  -0.26668
 Alpha  occ. eigenvalues --   -0.21959  -0.21367
 Alpha virt. eigenvalues --    0.08132   0.08739   0.11489   0.11838   0.12894
 Alpha virt. eigenvalues --    0.13349   0.14306   0.14841   0.15780   0.16487
 Alpha virt. eigenvalues --    0.17071   0.17908   0.18126   0.18770   0.19651

 Mulliken charges:
               1
     1  C   -0.177975
     2  N   -0.513168
     3  C   -0.071012
     4  C    0.039125
     5  O   -0.456499
     6  C    0.029731
     7  C   -0.115621
     8  N   -0.105910
     9  C   -0.182635
    10  H    0.107899
    11  H    0.086787
    12  H    0.109135
    13  H    0.240092
    14  H    0.103897
    15  H    0.101974
    16  H    0.096532
    17  H    0.101679
    18  H    0.098357
    19  H    0.085908
    20  H    0.091606
    21  H    0.121289
    22  H   -0.056017
    23  H    0.064518
    24  H    0.089716
    25  H    0.110593
 Sum of Mulliken charges =  -0.00000

 Dipole moment (field-independent basis, Debye):
    X=              1.5341    Y=              1.1461    Z=              2.5416  Tot=              3.1823
 Quadrupole moment (field-independent basis, Debye-Ang):
   XX=            -68.5875   YY=            -58.6639   ZZ=            -59.1833
   XY=             -2.5910   XZ=              2.1880   YZ=             -1.0723

 Summary of Natural Population Analysis:

                                       Natural Population
                Natural  -----------------------------------------------
    Atom  No    Charge         Core      Valence    Rydberg      Total
 -----------------------------------------------------------------------
      C    1   -0.49100      1.99950     4.47969    0.01180     6.49100
      N    2   -0.71339      1.99961     5.69829    0.01549     7.71339
      C    3   -0.29356      1.99934     4.27562    0.01860     6.29356
      C    4   -0.14376      1.99926     4.12794    0.01656     6.14376
      O    5   -0.56519      1.99980     6.55033    0.01507     8.56519
      C    6   -0.17118      1.99920     4.13868    0.03330     6.17118
      C    7   -0.38638      1.99935     4.36015    0.02688     6.38638
      N    8   -0.27690      1.99940     5.25947    0.01803     7.27690
      C    9   -0.58342      1.99945     4.55925    0.02472     6.58342
      H   10    0.23018      0.00000     0.76811    0.00171     0.76982
      H   11    0.19359      0.00000     0.80226    0.00415     0.80641
      H   12    0.21978      0.00000     0.77787    0.00235     0.78022
      H   13    0.38569      0.00000     0.60716    0.00715     0.61431
      H   14    0.23515      0.00000     0.76195    0.00290     0.76485
      H   15    0.23126      0.00000     0.76535    0.00339     0.76874
      H   16    0.20506      0.00000     0.79133    0.00361     0.79494
      H   17    0.21729      0.00000     0.77978    0.00293     0.78271
      H   18    0.21262      0.00000     0.77744    0.00994     0.78738
      H   19    0.21826      0.00000     0.76451    0.01723     0.78174
      H   20    0.22575      0.00000     0.75423    0.02002     0.77425
      H   21    0.23995      0.00000     0.74922    0.01082     0.76005
      H   22    0.16298      0.00000     0.73690    0.10012     0.83702
      H   23    0.20178      0.00000     0.77419    0.02404     0.79822
      H   24    0.21687      0.00000     0.75380    0.02934     0.78313
      H   25    0.22859      0.00000     0.75673    0.01468     0.77141
 =======================================================================
   * Total *   -0.00000     17.99491    55.57026    0.43483    74.00000

 Normal termination of Gaussian 16 at Tue Jul  9 19:46:40 2024.
