 Gaussian 16, Revision A.03,

 -------------------------------------------------------
 # opt=CalcFc B3LYP/6-31G** SCRF=(Solvent=water) scf=xqc
 -------------------------------------------------------

 ----------------------------------
 VXPJBVRYAHYMNY-UHFFFAOYSA-N_conf_0
 ----------------------------------
 Symbolic Z-matrix:
 Charge =  0 Multiplicity = 1

 SCF Done:  E(RB3LYP) =  -422.987348597     A.U. after   10 cycles
 SCF Done:  E(RB3LYP) =  -422.990009072     A.U. after   10 cycles
 SCF Done:  E(RB3LYP) =  -422.990108274     A.U. after    9 cycles
 SCF Done:  E(RB3LYP) =  -422.990108617     A.U. after    7 cycles
 SCF Done:  E(RB3LYP) =  -422.990108511     A.U. after    5 cycles
 Optimization completed.
    -- Stationary point found.
 Normal termination of Gaussian 16 at Tue Jul  9 18:48:37 2024.

 ----------------------------------------------------------------------
 # freq B3LYP/6-31G** SCRF=(Solvent=water) volume NMR pop=NPA density=c
 urrent Geom=AllCheck Guess=Read
 ----------------------------------------------------------------------

 Structure from the checkpoint file:  "VXPJBVRYAHYMNY-UHFFFAOYSA-N_conf_0_1.chk"
 ----------------------------------
 VXPJBVRYAHYMNY-UHFFFAOYSA-N_conf_0
 ----------------------------------
 Charge =  0 Multiplicity = 1

 SCF Done:  E(RB3LYP) =  -422.990108511     A.U. after    1 cycles

      1  C    Isotropic =   154.4691   Anisotropy =    54.6551

      2  N    Isotropic =   230.6261   Anisotropy =    47.2420

      3  C    Isotropic =   140.6745   Anisotropy =    56.1784

      4  C    Isotropic =   125.5344   Anisotropy =    70.2607

      5  O    Isotropic =   311.0976   Anisotropy =    32.9084

      6  C    Isotropic =   123.8181   Anisotropy =    56.8919

      7  C    Isotropic =   141.6884   Anisotropy =    43.6393

      8  N    Isotropic =   229.0332   Anisotropy =    31.1502

      9  C    Isotropic =   154.9048   Anisotropy =    53.9501

     10  H    Isotropic =    29.6111   Anisotropy =     8.3871

     11  H    Isotropic =    29.2342   Anisotropy =     9.8902

     12  H    Isotropic =    29.3773   Anisotropy =     9.1654

     13  H    Isotropic =    31.8376   Anisotropy =    12.6639

     14  H    Isotropic =    29.2017   Anisotropy =     5.2050

     15  H    Isotropic =    29.1989   Anisotropy =     5.0963

     16  H    Isotropic =    28.3421   Anisotropy =     5.8805

     17  H    Isotropic =    28.1887   Anisotropy =     5.5245

     18  H    Isotropic =    28.1920   Anisotropy =     5.2675

     19  H    Isotropic =    28.0861   Anisotropy =     7.7858

     20  H    Isotropic =    29.7416   Anisotropy =     7.2116

     21  H    Isotropic =    28.8490   Anisotropy =     5.9747

     22  H    Isotropic =    31.0400   Anisotropy =    11.4848

     23  H    Isotropic =    29.2151   Anisotropy =     9.9202

     24  H    Isotropic =    29.6020   Anisotropy =     9.0605

     25  H    Isotropic =    29.4566   Anisotropy =     8.7826

  Exact polarizability: 120.304  -0.611 100.473   0.277   2.515  94.761
 Approx polarizability: 114.595  -2.343 108.984   0.997   2.044 107.374

                      1                      2                      3
                      A                      A                      A
 Frequencies --     34.5549                46.1710                86.0138
 Red. masses --      3.5759                 2.7898                 1.8193
 Frc consts  --      0.0025                 0.0035                 0.0079
 IR Inten    --      0.5254                 0.3096                 6.3952

                      4                      5                      6
                      A                      A                      A
 Frequencies --    103.6007               120.4858               132.3186
 Red. masses --      2.9246                 2.2269                 2.3309
 Frc consts  --      0.0185                 0.0190                 0.0240
 IR Inten    --      7.5512                 1.8055                 0.1580

                      7                      8                      9
                      A                      A                      A
 Frequencies --    200.1957               231.9436               255.7410
 Red. masses --      2.6777                 2.2071                 1.1694
 Frc consts  --      0.0632                 0.0700                 0.0451
 IR Inten    --      6.8538                 1.5657                 3.9461

                     10                     11                     12
                      A                      A                      A
 Frequencies --    268.2396               304.0964               407.6545
 Red. masses --      1.3760                 2.5385                 2.9867
 Frc consts  --      0.0583                 0.1383                 0.2924
 IR Inten    --      1.4155                 3.0963                 0.8057

                     13                     14                     15
                      A                      A                      A
 Frequencies --    431.0593               478.9332               540.1586
 Red. masses --      2.7398                 2.9776                 2.6043
 Frc consts  --      0.2999                 0.4024                 0.4477
 IR Inten    --     13.4389                 9.5469                13.5901

                     16                     17                     18
                      A                      A                      A
 Frequencies --    795.6817               805.4938               820.5237
 Red. masses --      1.2368                 1.5923                 1.2776
 Frc consts  --      0.4614                 0.6087                 0.5068
 IR Inten    --    149.3834                47.0707                99.4239

                     19                     20                     21
                      A                      A                      A
 Frequencies --    845.1144               901.0382               982.0387
 Red. masses --      1.8834                 1.5862                 2.3212
 Frc consts  --      0.7926                 0.7587                 1.3189
 IR Inten    --      9.2660                25.0233                26.7456

                     22                     23                     24
                      A                      A                      A
 Frequencies --   1002.0215              1022.5590              1039.3710
 Red. masses --      2.0980                 1.6741                 2.7813
 Frc consts  --      1.2411                 1.0314                 1.7703
 IR Inten    --     13.9924                14.6395                15.9613

                     25                     26                     27
                      A                      A                      A
 Frequencies --   1076.9464              1102.5741              1115.0643
 Red. masses --      2.0861                 1.5440                 2.0681
 Frc consts  --      1.4255                 1.1059                 1.5150
 IR Inten    --    121.0505                11.6653               134.3207

                     28                     29                     30
                      A                      A                      A
 Frequencies --   1140.9916              1147.1615              1175.8479
 Red. masses --      2.8938                 3.0200                 1.6945
 Frc consts  --      2.2196                 2.3415                 1.3803
 IR Inten    --     31.4063                39.8021                18.4392

                     31                     32                     33
                      A                      A                      A
 Frequencies --   1184.1243              1196.2676              1224.4614
 Red. masses --      1.8845                 1.8177                 1.8157
 Frc consts  --      1.5569                 1.5326                 1.6039
 IR Inten    --     30.5137                 2.4676                22.2649

                     34                     35                     36
                      A                      A                      A
 Frequencies --   1278.0576              1289.6403              1314.4501
 Red. masses --      1.3211                 1.3310                 1.1617
 Frc consts  --      1.2714                 1.3043                 1.1826
 IR Inten    --     40.0274                17.6785                 5.5264

                     37                     38                     39
                      A                      A                      A
 Frequencies --   1338.5506              1349.6785              1389.3635
 Red. masses --      1.1737                 1.2413                 1.2870
 Frc consts  --      1.2390                 1.3323                 1.4637
 IR Inten    --      3.1038                21.5563                14.8077

                     40                     41                     42
                      A                      A                      A
 Frequencies --   1412.7429              1434.0737              1465.0698
 Red. masses --      1.3325                 1.3685                 1.1679
 Frc consts  --      1.5669                 1.6582                 1.4770
 IR Inten    --     18.4710                 0.5380                 8.0308

                     43                     44                     45
                      A                      A                      A
 Frequencies --   1465.8249              1484.7861              1489.3344
 Red. masses --      1.1742                 1.2221                 1.1703
 Frc consts  --      1.4865                 1.5874                 1.5295
 IR Inten    --      4.5986                24.9817                16.9114

                     46                     47                     48
                      A                      A                      A
 Frequencies --   1493.2488              1494.7626              1496.9346
 Red. masses --      1.0952                 1.0611                 1.0917
 Frc consts  --      1.4388                 1.3968                 1.4414
 IR Inten    --      7.0276                 8.8428                 5.3812

                     49                     50                     51
                      A                      A                      A
 Frequencies --   1511.6199              1516.5010              1521.8197
 Red. masses --      1.0918                 1.0874                 1.0548
 Frc consts  --      1.4698                 1.4734                 1.4393
 IR Inten    --      9.7353                12.2533                22.6690

                     52                     53                     54
                      A                      A                      A
 Frequencies --   1522.5154              1529.1000              2929.2533
 Red. masses --      1.0563                 1.0855                 1.0725
 Frc consts  --      1.4426                 1.4954                 5.4221
 IR Inten    --      7.5190                 1.0295               108.9540

                     55                     56                     57
                      A                      A                      A
 Frequencies --   2946.3664              2952.6759              2959.9299
 Red. masses --      1.0713                 1.0588                 1.0581
 Frc consts  --      5.4795                 5.4385                 5.4618
 IR Inten    --    104.2794               143.8893               149.0864

                     58                     59                     60
                      A                      A                      A
 Frequencies --   3024.4214              3033.8081              3044.8342
 Red. masses --      1.0585                 1.0658                 1.0838
 Frc consts  --      5.7046                 5.7796                 5.9203
 IR Inten    --     94.4975                18.7114                45.6780

                     61                     62                     63
                      A                      A                      A
 Frequencies --   3047.7235              3060.8860              3065.4622
 Red. masses --      1.0872                 1.0760                 1.0766
 Frc consts  --      5.9498                 5.9395                 5.9610
 IR Inten    --     66.3296                69.7073                66.0375

                     64                     65                     66
                      A                      A                      A
 Frequencies --   3079.0789              3094.6919              3110.6892
 Red. masses --      1.1071                 1.1040                 1.1017
 Frc consts  --      6.1840                 6.2293                 6.2808
 IR Inten    --     90.9094                64.2096                51.0020

                     67                     68                     69
                      A                      A                      A
 Frequencies --   3113.8173              3499.6292              3510.1845
 Red. masses --      1.1023                 1.0740                 1.0736
 Frc consts  --      6.2971                 7.7500                 7.7942
 IR Inten    --     50.4182                 0.4786                 3.6515

 - Thermochemistry -
 -------------------
 Temperature   298.150 Kelvin.  Pressure   1.00000 Atm.
 Atom     1 has atomic number  6 and mass  12.00000

 Molecular mass:   132.12626 amu.
 Principal axes and moments of inertia in atomic units:
                           1         2         3
     Eigenvalues --   341.489233754.534283824.76410
           X            0.99995   0.00865  -0.00457
           Y           -0.00819   0.99568   0.09248
           Z            0.00535  -0.09244   0.99570
 This molecule is an asymmetric top.
 Rotational symmetry number  1.
 Rotational temperatures (Kelvin)      0.25364     0.02307     0.02265
 Rotational constants (GHZ):           5.28491     0.48068     0.47186
 Zero-point vibrational energy     601063.5 (Joules/Mol)
                                  143.65763 (Kcal/Mol)
 Warning -- explicit consideration of  15 degrees of freedom as
           vibrations may cause significant error
 Vibrational temperatures:     49.72    66.43   123.75   149.06   173.35
          (Kelvin)            190.38   288.04   333.72   367.95   385.94
                              437.53   586.52   620.20   689.08   777.17
                             1144.81  1158.93  1180.55  1215.93  1296.39
                             1412.93  1441.69  1471.23  1495.42  1549.49
                             1586.36  1604.33  1641.63  1650.51  1691.78
                             1703.69  1721.16  1761.73  1838.84  1855.50
                             1891.20  1925.88  1941.89  1998.98  2032.62
                             2063.31  2107.91  2109.00  2136.28  2142.82
                             2148.45  2150.63  2153.75  2174.88  2181.91
                             2189.56  2190.56  2200.03  4214.54  4239.16
                             4248.24  4258.68  4351.47  4364.97  4380.84
                             4384.99  4403.93  4410.52  4430.11  4452.57
                             4475.59  4480.09  5035.19  5050.37

 Zero-point correction=                           0.228933 (Hartree/Particle)
 Thermal correction to Energy=                    0.240593
 Thermal correction to Enthalpy=                  0.241537
 Thermal correction to Gibbs Free Energy=         0.190222
 Sum of electronic and zero-point Energies=           -422.761176
 Sum of electronic and thermal Energies=              -422.749515
 Sum of electronic and thermal Enthalpies=            -422.748571
 Sum of electronic and thermal Free Energies=         -422.799886

                     E (Thermal)             CV                S
                      KCal/Mol        Cal/Mol-Kelvin    Cal/Mol-Kelvin
 Total                  150.974             40.323            108.002
 Electronic               0.000              0.000              0.000
 Translational            0.889              2.981             40.548
 Rotational               0.889              2.981             29.973
 Vibrational            149.197             34.361             37.480
 Vibration     1          0.594              1.983              5.549
 Vibration     2          0.595              1.979              4.975
 Vibration     3          0.601              1.959              3.749
 Vibration     4          0.605              1.946              3.385
 Vibration     5          0.609              1.932              3.093
 Vibration     6          0.612              1.921              2.912
 Vibration     7          0.638              1.840              2.131
 Vibration     8          0.653              1.792              1.864
 Vibration     9          0.666              1.753              1.691
 Vibration    10          0.673              1.732              1.608
 Vibration    11          0.695              1.666              1.394
 Vibration    12          0.772              1.454              0.935
 Vibration    13          0.792              1.403              0.855
 Vibration    14          0.835              1.297              0.713
 Vibration    15          0.895              1.161              0.565

 Optimization completed.
    -- Stationary point found.
 Normal termination of Gaussian 16 at Tue Jul  9 19:02:16 2024.
 Gaussian 16:  EM64L-G16RevA.03 25-Dec-2016

 ----------------------------------------------------------------------
 # TD(NStates=10, Root=1) B3LYP/6-31G** SCRF=(Solvent=water) volume pop
 =NPA density=current Geom=AllCheck Guess=Read
 ----------------------------------------------------------------------

 Structure from the checkpoint file:  "VXPJBVRYAHYMNY-UHFFFAOYSA-N_conf_0_2.chk"
 ----------------------------------
 VXPJBVRYAHYMNY-UHFFFAOYSA-N_conf_0
 ----------------------------------
 Charge =  0 Multiplicity = 1

                         Standard orientation:
 ---------------------------------------------------------------------
 Center     Atomic      Atomic             Coordinates (Angstroms)
 Number     Number       Type             X           Y           Z
 ---------------------------------------------------------------------
      1          6           0        4.440837   -0.010247    0.378764
      2          7           0        3.136613   -0.664270    0.282193
      3          6           0        2.108399    0.206283   -0.283349
      4          6           0        0.757199   -0.511444   -0.310522
      5          8           0       -0.261416    0.306452   -0.884696
      6          6           0       -0.945840    1.154135    0.043651
      7          6           0       -2.127057    0.442499    0.695084
      8          7           0       -3.089113    0.020575   -0.319298
      9          6           0       -4.167518   -0.798785    0.226505
     10          1           0        4.386579    0.809353    1.104155
     11          1           0        5.184996   -0.727041    0.738187
     12          1           0        4.804512    0.413352   -0.573770
     13          1           0        3.232228   -1.482534   -0.316692
     14          1           0        2.034251    1.100443    0.349165
     15          1           0        2.343361    0.560929   -1.303599
     16          1           0        0.824306   -1.408352   -0.937893
     17          1           0        0.488358   -0.839043    0.702170
     18          1           0       -0.260241    1.533394    0.812458
     19          1           0       -1.309724    2.006711   -0.539108
     20          1           0       -2.616671    1.140780    1.387535
     21          1           0       -1.758436   -0.399941    1.311489
     22          1           0       -2.575662   -0.523026   -1.010287
     23          1           0       -4.809624   -1.151970   -0.585964
     24          1           0       -4.784803   -0.194538    0.901478
     25          1           0       -3.820733   -1.678912    0.797173
 ---------------------------------------------------------------------

 SCF Done:  E(RB3LYP) =  -422.990108511     A.U. after    1 cycles

 Excitation energies and oscillator strengths:

 Excited State   1:      Singlet-A      7.1999 eV  172.20 nm  f=0.0106  <S**2>=0.000
      36 -> 38        -0.10985
      36 -> 39         0.67971
      37 -> 39        -0.10748
 This state for optimization and/or second-order correction.
 Total Energy, E(TD-HF/TD-DFT) =  -422.725515532
 Copying the excited state density for this state as the 1-particle RhoCI density.

 Excited State   2:      Singlet-A      7.2358 eV  171.35 nm  f=0.0214  <S**2>=0.000
      37 -> 38         0.66942
      37 -> 40         0.17658

 Excited State   3:      Singlet-A      7.6405 eV  162.27 nm  f=0.0025  <S**2>=0.000
      36 -> 38         0.66713
      36 -> 39         0.12257
      36 -> 40        -0.13916

 Excited State   4:      Singlet-A      7.8437 eV  158.07 nm  f=0.0113  <S**2>=0.000
      36 -> 39         0.10178
      37 -> 39         0.61247
      37 -> 40        -0.27167
      37 -> 42        -0.10948

 Excited State   5:      Singlet-A      7.9571 eV  155.81 nm  f=0.0264  <S**2>=0.000
      35 -> 38         0.21305
      37 -> 38        -0.15468
      37 -> 39         0.28710
      37 -> 40         0.55521

 Excited State   6:      Singlet-A      8.1697 eV  151.76 nm  f=0.0275  <S**2>=0.000
      35 -> 38         0.60667
      36 -> 40         0.13580
      36 -> 42        -0.11908
      37 -> 40        -0.19951
      37 -> 41         0.13095

 Excited State   7:      Singlet-A      8.2049 eV  151.11 nm  f=0.0570  <S**2>=0.000
      35 -> 38        -0.19942
      36 -> 40         0.47183
      36 -> 41        -0.21918
      36 -> 42        -0.38522

 Excited State   8:      Singlet-A      8.3140 eV  149.13 nm  f=0.0649  <S**2>=0.000
      35 -> 38        -0.13613
      37 -> 41         0.62999
      37 -> 43        -0.13650
      37 -> 45         0.13331

 Excited State   9:      Singlet-A      8.4531 eV  146.67 nm  f=0.0129  <S**2>=0.000
      35 -> 39         0.66792
      37 -> 39         0.10146

 Excited State  10:      Singlet-A      8.5562 eV  144.91 nm  f=0.0868  <S**2>=0.000
      35 -> 39        -0.13905
      36 -> 41         0.48338
      36 -> 42        -0.40501
      36 -> 44        -0.20111

 The electronic state is 1-A.
 Alpha  occ. eigenvalues --  -19.15034 -14.31886 -14.31377 -10.22883 -10.22839
 Alpha  occ. eigenvalues --  -10.20303 -10.20278 -10.19915 -10.19741  -1.02787
 Alpha  occ. eigenvalues --   -0.89892  -0.89425  -0.75645  -0.71950  -0.66231
 Alpha  occ. eigenvalues --   -0.64235  -0.61504  -0.57865  -0.50222  -0.48886
 Alpha  occ. eigenvalues --   -0.48096  -0.47392  -0.44126  -0.43000  -0.42781
 Alpha  occ. eigenvalues --   -0.41547  -0.40102  -0.38329  -0.37291  -0.36348
 Alpha  occ. eigenvalues --   -0.36168  -0.35234  -0.34703  -0.30809  -0.25646
 Alpha  occ. eigenvalues --   -0.22496  -0.22109
 Alpha virt. eigenvalues --    0.08507   0.08761   0.10899   0.12168   0.12401
 Alpha virt. eigenvalues --    0.14127   0.14363   0.15565   0.16061   0.16381
 Alpha virt. eigenvalues --    0.16693   0.17810   0.18416   0.18585   0.18733

 Mulliken charges:
               1
     1  C   -0.198358
     2  N   -0.063325
     3  C   -0.100031
     4  C    0.033761
     5  O   -0.504232
     6  C    0.027571
     7  C   -0.035912
     8  N   -0.523971
     9  C   -0.172858
    10  H    0.107619
    11  H    0.071807
    12  H    0.120659
    13  H   -0.094013
    14  H    0.102036
    15  H    0.101040
    16  H    0.078636
    17  H    0.104678
    18  H    0.098968
    19  H    0.105723
    20  H    0.103910
    21  H    0.081302
    22  H    0.247948
    23  H    0.108972
    24  H    0.111137
    25  H    0.086933
 Sum of Mulliken charges =  -0.00000

 Dipole moment (field-independent basis, Debye):
    X=              1.4885    Y=              0.5544    Z=              2.5878  Tot=              3.0364
 Quadrupole moment (field-independent basis, Debye-Ang):
   XX=            -57.1428   YY=            -60.4542   ZZ=            -61.0511
   XY=              7.6678   XZ=             -0.1387   YZ=              0.9181

 Summary of Natural Population Analysis:

                                       Natural Population
                Natural  -----------------------------------------------
    Atom  No    Charge         Core      Valence    Rydberg      Total
 -----------------------------------------------------------------------
      C    1   -0.59843      1.99947     4.57348    0.02547     6.59843
      N    2   -0.22805      1.99933     5.20784    0.02087     7.22805
      C    3   -0.40081      1.99932     4.37293    0.02856     6.40081
      C    4   -0.15343      1.99924     4.12732    0.02687     6.15343
      O    5   -0.61059      1.99981     6.59795    0.01283     8.61059
      C    6   -0.12451      1.99925     4.10538    0.01989     6.12451
      C    7   -0.29512      1.99934     4.28125    0.01453     6.29512
      N    8   -0.71131      1.99958     5.69615    0.01558     7.71131
      C    9   -0.48540      1.99951     4.47458    0.01131     6.48540
      H   10    0.22514      0.00000     0.75687    0.01799     0.77486
      H   11    0.20449      0.00000     0.77288    0.02263     0.79551
      H   12    0.24566      0.00000     0.72965    0.02469     0.75434
      H   13    0.13253      0.00000     0.76284    0.10463     0.86747
      H   14    0.22688      0.00000     0.75504    0.01808     0.77312
      H   15    0.23794      0.00000     0.73156    0.03050     0.76206
      H   16    0.20911      0.00000     0.77469    0.01619     0.79089
      H   17    0.21259      0.00000     0.78295    0.00445     0.78741
      H   18    0.21312      0.00000     0.78399    0.00290     0.78688
      H   19    0.22743      0.00000     0.76953    0.00304     0.77257
      H   20    0.23385      0.00000     0.76371    0.00244     0.76615
      H   21    0.20075      0.00000     0.79556    0.00369     0.79925
      H   22    0.38993      0.00000     0.60408    0.00599     0.61007
      H   23    0.23104      0.00000     0.76755    0.00141     0.76896
      H   24    0.22074      0.00000     0.77745    0.00181     0.77926
      H   25    0.19644      0.00000     0.80039    0.00318     0.80356
 =======================================================================
   * Total *   -0.00000     17.99486    55.56561    0.43953    74.00000

 Normal termination of Gaussian 16 at Tue Jul  9 19:17:24 2024.
