 Gaussian 16, Revision A.03,

 -------------------------------------------------------
 # opt=CalcFc B3LYP/6-31G** SCRF=(Solvent=water) scf=xqc
 -------------------------------------------------------

 ----------------------------------
 QLBRROYTTDFLDX-OCAPTIKFSA-N_conf_0
 ----------------------------------
 Symbolic Z-matrix:
 Charge =  0 Multiplicity = 1

 SCF Done:  E(RB3LYP) =  -425.225462713     A.U. after   11 cycles
 SCF Done:  E(RB3LYP) =  -425.227978092     A.U. after    9 cycles
 SCF Done:  E(RB3LYP) =  -425.228092439     A.U. after    9 cycles
 SCF Done:  E(RB3LYP) =  -425.228093345     A.U. after    7 cycles
 Optimization completed.
    -- Stationary point found.
 Normal termination of Gaussian 16 at Thu Jul 18 20:43:22 2024.

 ----------------------------------------------------------------------
 # freq B3LYP/6-31G** SCRF=(Solvent=water) volume NMR pop=NPA density=c
 urrent Geom=AllCheck Guess=Read
 ----------------------------------------------------------------------

 Structure from the checkpoint file:  "QLBRROYTTDFLDX-OCAPTIKFSA-N_conf_0_1.chk"
 ----------------------------------
 QLBRROYTTDFLDX-OCAPTIKFSA-N_conf_0
 ----------------------------------
 Charge =  0 Multiplicity = 1

 SCF Done:  E(RB3LYP) =  -425.228093345     A.U. after    1 cycles

      1  N    Isotropic =   236.6683   Anisotropy =    26.5882

      2  C    Isotropic =   141.1806   Anisotropy =    33.8478

      3  C    Isotropic =   149.9115   Anisotropy =    16.0793

      4  C    Isotropic =   154.6446   Anisotropy =    24.2256

      5  C    Isotropic =   149.9115   Anisotropy =    16.0793

      6  C    Isotropic =   141.1806   Anisotropy =    33.8478

      7  N    Isotropic =   236.6683   Anisotropy =    26.5882

      8  C    Isotropic =   161.0243   Anisotropy =     8.7687

      9  C    Isotropic =   164.6528   Anisotropy =     5.8326

     10  C    Isotropic =   161.0243   Anisotropy =     8.7687

     11  H    Isotropic =    31.2838   Anisotropy =    11.6581

     12  H    Isotropic =    31.1126   Anisotropy =    16.0565

     13  H    Isotropic =    29.3541   Anisotropy =     5.5986

     14  H    Isotropic =    29.2375   Anisotropy =     5.3461

     15  H    Isotropic =    30.2301   Anisotropy =     5.4610

     16  H    Isotropic =    30.4889   Anisotropy =     6.8105

     17  H    Isotropic =    31.0855   Anisotropy =     4.6292

     18  H    Isotropic =    30.2301   Anisotropy =     5.4610

     19  H    Isotropic =    29.3541   Anisotropy =     5.5986

     20  H    Isotropic =    29.2375   Anisotropy =     5.3461

     21  H    Isotropic =    31.2838   Anisotropy =    11.6581

     22  H    Isotropic =    31.1126   Anisotropy =    16.0565

     23  H    Isotropic =    29.9498   Anisotropy =     7.6468

     24  H    Isotropic =    30.9999   Anisotropy =     7.1201

     25  H    Isotropic =    30.4185   Anisotropy =     8.3590

     26  H    Isotropic =    30.0023   Anisotropy =    10.1511

     27  H    Isotropic =    29.9498   Anisotropy =     7.6468

     28  H    Isotropic =    30.9999   Anisotropy =     7.1201

  Exact polarizability: 139.129   0.000 126.422   0.000   0.746 112.391
 Approx polarizability: 136.523   0.000 134.032   0.000   1.225 128.589

                      1                      2                      3
                      A                      A                      A
 Frequencies --     69.0764               110.9521               128.1884
 Red. masses --      3.4293                 2.3917                 3.4872
 Frc consts  --      0.0096                 0.0173                 0.0338
 IR Inten    --      3.2372                 0.0801                 5.5733

                      4                      5                      6
                      A                      A                      A
 Frequencies --    136.4664               192.3306               239.3374
 Red. masses --      2.2245                 1.7507                 1.7304
 Frc consts  --      0.0244                 0.0382                 0.0584
 IR Inten    --      1.0470                26.3767                 5.2107

                      7                      8                      9
                      A                      A                      A
 Frequencies --    249.5570               262.2687               286.8553
 Red. masses --      1.2508                 1.5239                 1.6732
 Frc consts  --      0.0459                 0.0618                 0.0811
 IR Inten    --     74.8911                54.7929                13.7185

                     10                     11                     12
                      A                      A                      A
 Frequencies --    320.8087               368.4174               431.4894
 Red. masses --      4.2082                 3.0598                 2.5684
 Frc consts  --      0.2552                 0.2447                 0.2817
 IR Inten    --      9.4896                 0.0723                 0.2996

                     13                     14                     15
                      A                      A                      A
 Frequencies --    433.4875               466.0511               541.7606
 Red. masses --      1.6502                 2.9605                 3.1108
 Frc consts  --      0.1827                 0.3789                 0.5379
 IR Inten    --      1.2672                 1.8608                19.6407

                     16                     17                     18
                      A                      A                      A
 Frequencies --    561.0895               778.4341               813.7346
 Red. masses --      1.9708                 1.9841                 2.2004
 Frc consts  --      0.3656                 0.7084                 0.8585
 IR Inten    --      0.5536                 0.6329                 2.2979

                     19                     20                     21
                      A                      A                      A
 Frequencies --    849.6835               861.9885               890.7102
 Red. masses --      1.4304                 1.3721                 1.5161
 Frc consts  --      0.6085                 0.6007                 0.7087
 IR Inten    --     41.6879                 0.0658               171.8923

                     22                     23                     24
                      A                      A                      A
 Frequencies --    893.7123               923.9718               933.9176
 Red. masses --      1.3177                 1.9126                 2.2295
 Frc consts  --      0.6201                 0.9620                 1.1457
 IR Inten    --     90.5795                43.6717                 2.9184

                     25                     26                     27
                      A                      A                      A
 Frequencies --    966.6475               983.6235              1010.7983
 Red. masses --      1.4559                 1.6430                 2.5996
 Frc consts  --      0.8015                 0.9366                 1.5649
 IR Inten    --     50.6546                 2.2011                14.8071

                     28                     29                     30
                      A                      A                      A
 Frequencies --   1051.5910              1052.7095              1091.2316
 Red. masses --      3.4651                 1.7824                 2.0300
 Frc consts  --      2.2577                 1.1638                 1.4242
 IR Inten    --      2.7428                 7.2268                 0.0292

                     31                     32                     33
                      A                      A                      A
 Frequencies --   1092.8521              1096.0338              1109.8062
 Red. masses --      1.6512                 1.1917                 1.8737
 Frc consts  --      1.1619                 0.8435                 1.3597
 IR Inten    --      1.3314                 1.1773                13.0866

                     34                     35                     36
                      A                      A                      A
 Frequencies --   1139.4249              1170.3589              1172.1827
 Red. masses --      2.5282                 2.2961                 1.2207
 Frc consts  --      1.9339                 1.8530                 0.9882
 IR Inten    --      3.9021                29.7159                 0.1152

                     37                     38                     39
                      A                      A                      A
 Frequencies --   1225.3825              1249.5600              1255.5280
 Red. masses --      1.5576                 1.3179                 1.3064
 Frc consts  --      1.3780                 1.2124                 1.2133
 IR Inten    --      2.1274                 2.8202                 3.4062

                     40                     41                     42
                      A                      A                      A
 Frequencies --   1293.6235              1300.4167              1305.4560
 Red. masses --      1.2722                 1.1997                 1.3256
 Frc consts  --      1.2544                 1.1953                 1.3310
 IR Inten    --      5.8163                 1.4624                 1.9160

                     43                     44                     45
                      A                      A                      A
 Frequencies --   1336.8107              1356.8483              1357.5336
 Red. masses --      1.2842                 1.1978                 1.2178
 Frc consts  --      1.3522                 1.2992                 1.3223
 IR Inten    --      1.2163                 2.2364                 0.1230

                     46                     47                     48
                      A                      A                      A
 Frequencies --   1363.4847              1384.7104              1389.7388
 Red. masses --      1.3778                 1.3690                 1.4902
 Frc consts  --      1.5091                 1.5466                 1.6957
 IR Inten    --      0.2510                 0.2448                 9.4475

                     49                     50                     51
                      A                      A                      A
 Frequencies --   1399.0795              1412.6761              1433.2098
 Red. masses --      1.5586                 1.5392                 1.4298
 Frc consts  --      1.7975                 1.8098                 1.7304
 IR Inten    --      1.8767                 1.6255                35.5653

                     52                     53                     54
                      A                      A                      A
 Frequencies --   1436.1638              1489.9422              1493.4036
 Red. masses --      1.4710                 1.0912                 1.0958
 Frc consts  --      1.7876                 1.4272                 1.4399
 IR Inten    --      0.5274                 0.4585                 0.1923

                     55                     56                     57
                      A                      A                      A
 Frequencies --   1495.0321              1507.2518              1512.5888
 Red. masses --      1.0869                 1.0965                 1.0849
 Frc consts  --      1.4314                 1.4677                 1.4625
 IR Inten    --      6.2454                 1.9135                 3.8644

                     58                     59                     60
                      A                      A                      A
 Frequencies --   1514.9850              1658.5245              1659.2228
 Red. masses --      1.0889                 1.0859                 1.0861
 Frc consts  --      1.4724                 1.7599                 1.7617
 IR Inten    --      0.4665                59.0437                27.6425

                     61                     62                     63
                      A                      A                      A
 Frequencies --   2945.9268              2946.0009              2998.2340
 Red. masses --      1.0716                 1.0719                 1.0664
 Frc consts  --      5.4795                 5.4812                 5.6482
 IR Inten    --      5.8713               204.4788                25.8363

                     64                     65                     66
                      A                      A                      A
 Frequencies --   2999.5839              3003.1086              3009.1309
 Red. masses --      1.0750                 1.0727                 1.0730
 Frc consts  --      5.6989                 5.6999                 5.7246
 IR Inten    --     14.4045                15.3253                17.5967

                     67                     68                     69
                      A                      A                      A
 Frequencies --   3012.5599              3019.9957              3045.9708
 Red. masses --      1.0721                 1.0631                 1.0981
 Frc consts  --      5.7328                 5.7127                 6.0025
 IR Inten    --    178.2203                83.1554                24.8683

                     70                     71                     72
                      A                      A                      A
 Frequencies --   3054.5928              3056.4846              3064.7524
 Red. masses --      1.0901                 1.0919                 1.0971
 Frc consts  --      5.9924                 6.0102                 6.0712
 IR Inten    --      0.4255               247.3648                77.9157

                     73                     74                     75
                      A                      A                      A
 Frequencies --   3064.9954              3068.9011              3487.7060
 Red. masses --      1.0948                 1.1013                 1.0510
 Frc consts  --      6.0596                 6.1109                 7.5324
 IR Inten    --     57.2478               146.4798                 2.5036

                     76                     77                     78
                      A                      A                      A
 Frequencies --   3487.7398              3561.7838              3561.7898
 Red. masses --      1.0510                 1.0912                 1.0912
 Frc consts  --      7.5324                 8.1565                 8.1563
 IR Inten    --      0.3166                 0.0553                 0.0043

 - Thermochemistry -
 -------------------
 Temperature   298.150 Kelvin.  Pressure   1.00000 Atm.
 Atom     1 has atomic number  7 and mass  14.00307

 Molecular mass:   142.14700 amu.
 Principal axes and moments of inertia in atomic units:
                           1         2         3
     Eigenvalues --   666.622192742.303573251.69635
           X            1.00000   0.00000   0.00000
           Y           -0.00000   0.99998  -0.00697
           Z           -0.00000   0.00697   0.99998
 This molecule is an asymmetric top.
 Rotational symmetry number  1.
 Warning -- assumption of classical behavior for rotation
           may cause significant error
 Rotational temperatures (Kelvin)      0.12993     0.03158     0.02664
 Rotational constants (GHZ):           2.70729     0.65811     0.55502
 Zero-point vibrational energy     687266.5 (Joules/Mol)
                                  164.26063 (Kcal/Mol)
 Warning -- explicit consideration of  16 degrees of freedom as
           vibrations may cause significant error
 Vibrational temperatures:     99.39   159.64   184.43   196.34   276.72
          (Kelvin)            344.35   359.06   377.35   412.72   461.57
                              530.07   620.82   623.69   670.54   779.47
                              807.28  1119.99  1170.78  1222.51  1240.21
                             1281.53  1285.85  1329.39  1343.70  1390.79
                             1415.21  1454.31  1513.00  1514.61  1570.04
                             1572.37  1576.95  1596.76  1639.38  1683.89
                             1686.51  1763.05  1797.84  1806.42  1861.24
                             1871.01  1878.26  1923.37  1952.20  1953.19
                             1961.75  1992.29  1999.52  2012.96  2032.53
                             2062.07  2066.32  2143.69  2148.67  2151.02
                             2168.60  2176.28  2179.73  2386.25  2387.25
                             4238.53  4238.64  4313.79  4315.73  4320.80
                             4329.47  4334.40  4345.10  4382.47  4394.88
                             4397.60  4409.50  4409.84  4415.46  5018.03
                             5018.08  5124.61  5124.62

 Zero-point correction=                           0.261766 (Hartree/Particle)
 Thermal correction to Energy=                    0.272868
 Thermal correction to Enthalpy=                  0.273812
 Thermal correction to Gibbs Free Energy=         0.225540
 Sum of electronic and zero-point Energies=           -424.966327
 Sum of electronic and thermal Energies=              -424.955225
 Sum of electronic and thermal Enthalpies=            -424.954281
 Sum of electronic and thermal Free Energies=         -425.002553

                     E (Thermal)             CV                S
                      KCal/Mol        Cal/Mol-Kelvin    Cal/Mol-Kelvin
 Total                  171.227             42.776            101.597
 Electronic               0.000              0.000              0.000
 Translational            0.889              2.981             40.766
 Rotational               0.889              2.981             30.165
 Vibrational            169.450             36.815             30.666
 Vibration     1          0.598              1.969              4.180
 Vibration     2          0.607              1.940              3.252
 Vibration     3          0.611              1.925              2.973
 Vibration     4          0.614              1.917              2.853
 Vibration     5          0.634              1.850              2.205
 Vibration     6          0.657              1.780              1.808
 Vibration     7          0.662              1.763              1.734
 Vibration     8          0.670              1.742              1.647
 Vibration     9          0.684              1.698              1.492
 Vibration    10          0.706              1.634              1.306
 Vibration    11          0.741              1.537              1.086
 Vibration    12          0.793              1.402              0.854
 Vibration    13          0.794              1.397              0.847
 Vibration    14          0.823              1.325              0.749
 Vibration    15          0.897              1.158              0.562
 Vibration    16          0.917              1.115              0.522

 Optimization completed.
    -- Stationary point found.
 Normal termination of Gaussian 16 at Thu Jul 18 20:54:21 2024.
 Gaussian 16:  ES64L-G16RevA.03 25-Dec-2016

 ----------------------------------------------------------------------
 # TD(NStates=10, Root=1) B3LYP/6-31G** SCRF=(Solvent=water) volume pop
 =NPA density=current Geom=AllCheck Guess=Read
 ----------------------------------------------------------------------

 Structure from the checkpoint file:  "QLBRROYTTDFLDX-OCAPTIKFSA-N_conf_0_2.chk"
 ----------------------------------
 QLBRROYTTDFLDX-OCAPTIKFSA-N_conf_0
 ----------------------------------
 Charge =  0 Multiplicity = 1

                         Standard orientation:
 ---------------------------------------------------------------------
 Center     Atomic      Atomic             Coordinates (Angstroms)
 Number     Number       Type             X           Y           Z
 ---------------------------------------------------------------------
      1          7           0       -3.775053   -0.418425   -0.319940
      2          6           0       -2.528334   -1.007659    0.197310
      3          6           0       -1.285484   -0.231259   -0.260700
      4          6           0        0.000000   -0.963142    0.165704
      5          6           0        1.285484   -0.231259   -0.260700
      6          6           0        2.528334   -1.007659    0.197310
      7          7           0        3.775053   -0.418425   -0.319941
      8          6           0        1.271234    1.218453    0.256851
      9          6           0        0.000000    1.965838   -0.170153
     10          6           0       -1.271234    1.218453    0.256851
     11          1           0       -3.978585    0.437372    0.192635
     12          1           0       -4.547941   -1.043547   -0.099488
     13          1           0       -2.463265   -2.032177   -0.189388
     14          1           0       -2.508229   -1.088605    1.299164
     15          1           0       -1.313005   -0.195457   -1.360445
     16          1           0        0.000000   -1.980320   -0.248782
     17          1           0        0.000000   -1.075195    1.261063
     18          1           0        1.313005   -0.195457   -1.360445
     19          1           0        2.463265   -2.032177   -0.189388
     20          1           0        2.508229   -1.088605    1.299164
     21          1           0        3.978585    0.437372    0.192635
     22          1           0        4.547941   -1.043547   -0.099488
     23          1           0        2.154544    1.758496   -0.104388
     24          1           0        1.334361    1.205344    1.355738
     25          1           0        0.000000    2.080221   -1.263316
     26          1           0       -0.000000    2.979792    0.247709
     27          1           0       -2.154544    1.758496   -0.104388
     28          1           0       -1.334361    1.205344    1.355738
 ---------------------------------------------------------------------

 SCF Done:  E(RB3LYP) =  -425.228093345     A.U. after    1 cycles

 Excitation energies and oscillator strengths:

 Excited State   1:      Singlet-A      7.3927 eV  167.71 nm  f=0.0346  <S**2>=0.000
      39 -> 42         0.40632
      40 -> 41         0.56247
 This state for optimization and/or second-order correction.
 Total Energy, E(TD-HF/TD-DFT) =  -424.956418201
 Copying the excited state density for this state as the 1-particle RhoCI density.

 Excited State   2:      Singlet-A      7.4083 eV  167.36 nm  f=0.0022  <S**2>=0.000
      39 -> 41         0.54036
      40 -> 42         0.43454

 Excited State   3:      Singlet-A      8.2397 eV  150.47 nm  f=0.0025  <S**2>=0.000
      39 -> 42         0.41112
      40 -> 41        -0.38561
      40 -> 43        -0.37297
      40 -> 44        -0.17249

 Excited State   4:      Singlet-A      8.2647 eV  150.02 nm  f=0.0011  <S**2>=0.000
      39 -> 41        -0.43521
      39 -> 43        -0.28036
      39 -> 44        -0.14708
      40 -> 42         0.45064

 Excited State   5:      Singlet-A      8.4274 eV  147.12 nm  f=0.0001  <S**2>=0.000
      39 -> 42         0.28239
      40 -> 41        -0.16015
      40 -> 43         0.57259
      40 -> 44        -0.23644

 Excited State   6:      Singlet-A      8.4725 eV  146.34 nm  f=0.0385  <S**2>=0.000
      39 -> 41        -0.12169
      39 -> 43         0.62448
      39 -> 44        -0.12936
      40 -> 42         0.24659

 Excited State   7:      Singlet-A      8.5650 eV  144.76 nm  f=0.0219  <S**2>=0.000
      39 -> 42         0.27783
      39 -> 46         0.16770
      40 -> 44         0.57714
      40 -> 45        -0.20508

 Excited State   8:      Singlet-A      8.5983 eV  144.20 nm  f=0.0811  <S**2>=0.000
      39 -> 44         0.60322
      39 -> 45        -0.21046
      40 -> 42         0.19975
      40 -> 46         0.19781

 Excited State   9:      Singlet-A      8.6816 eV  142.81 nm  f=0.0000  <S**2>=0.000
      39 -> 46        -0.27916
      39 -> 47        -0.17955
      40 -> 43         0.10537
      40 -> 44         0.20594
      40 -> 45         0.54440
      40 -> 48        -0.17180

 Excited State  10:      Singlet-A      8.7094 eV  142.36 nm  f=0.0032  <S**2>=0.000
      39 -> 43         0.11144
      39 -> 44         0.22702
      39 -> 45         0.50429
      39 -> 48        -0.18509
      40 -> 46        -0.30839
      40 -> 47        -0.20280

 The electronic state is 1-A.
 Alpha  occ. eigenvalues --  -14.30822 -14.30822 -10.19888 -10.19888 -10.17746
 Alpha  occ. eigenvalues --  -10.17746 -10.17446 -10.17263 -10.17261 -10.17224
 Alpha  occ. eigenvalues --   -0.87570  -0.87272  -0.82003  -0.74712  -0.74119
 Alpha  occ. eigenvalues --   -0.65534  -0.64038  -0.59503  -0.55536  -0.54582
 Alpha  occ. eigenvalues --   -0.48275  -0.47830  -0.46361  -0.46181  -0.43201
 Alpha  occ. eigenvalues --   -0.42297  -0.41010  -0.40567  -0.39330  -0.37784
 Alpha  occ. eigenvalues --   -0.35485  -0.35184  -0.33681  -0.33179  -0.32256
 Alpha  occ. eigenvalues --   -0.30884  -0.29302  -0.28745  -0.23651  -0.23465
 Alpha virt. eigenvalues --    0.08041   0.09214   0.10239   0.10841   0.11780
 Alpha virt. eigenvalues --    0.13266   0.14655   0.14834   0.16339   0.17037
 Alpha virt. eigenvalues --    0.17627   0.18301   0.19047   0.19517   0.19833

 Mulliken charges:
               1
     1  N   -0.352034
     2  C   -0.075846
     3  C   -0.051204
     4  C   -0.173177
     5  C   -0.051204
     6  C   -0.075846
     7  N   -0.352033
     8  C   -0.147254
     9  C   -0.195495
    10  C   -0.147254
    11  H    0.121777
    12  H    0.123789
    13  H    0.085829
    14  H    0.101259
    15  H    0.088634
    16  H    0.081235
    17  H    0.087754
    18  H    0.088634
    19  H    0.085829
    20  H    0.101259
    21  H    0.121777
    22  H    0.123788
    23  H    0.045307
    24  H    0.071669
    25  H    0.088999
    26  H    0.086831
    27  H    0.045307
    28  H    0.071669
 Sum of Mulliken charges =  -0.00000

 Dipole moment (field-independent basis, Debye):
    X=             -0.0000    Y=             -1.3607    Z=              1.3518  Tot=              1.9181
 Quadrupole moment (field-independent basis, Debye-Ang):
   XX=            -67.7409   YY=            -66.4594   ZZ=            -67.3837
   XY=             -0.0000   XZ=             -0.0000   YZ=             -0.8368

 Summary of Natural Population Analysis:

                                       Natural Population
                Natural  -----------------------------------------------
    Atom  No    Charge         Core      Valence    Rydberg      Total
 -----------------------------------------------------------------------
      N    1   -0.63989      1.99948     5.62423    0.01617     7.63989
      C    2   -0.30529      1.99927     4.28735    0.01868     6.30529
      C    3   -0.26158      1.99920     4.24826    0.01413     6.26158
      C    4   -0.46857      1.99928     4.45538    0.01392     6.46857
      C    5   -0.26158      1.99920     4.24826    0.01413     6.26158
      C    6   -0.30529      1.99927     4.28735    0.01868     6.30529
      N    7   -0.63989      1.99948     5.62423    0.01617     7.63989
      C    8   -0.47507      1.99930     4.46073    0.01504     6.47507
      C    9   -0.46206      1.99933     4.45062    0.01211     6.46206
      C   10   -0.47507      1.99930     4.46073    0.01504     6.47507
      H   11    0.28001      0.00000     0.66740    0.05259     0.71999
      H   12    0.28237      0.00000     0.66566    0.05198     0.71763
      H   13    0.21874      0.00000     0.76706    0.01420     0.78126
      H   14    0.23076      0.00000     0.75425    0.01498     0.76924
      H   15    0.24356      0.00000     0.75129    0.00515     0.75644
      H   16    0.23155      0.00000     0.76315    0.00530     0.76845
      H   17    0.22768      0.00000     0.76818    0.00413     0.77232
      H   18    0.24356      0.00000     0.75129    0.00515     0.75644
      H   19    0.21874      0.00000     0.76706    0.01420     0.78126
      H   20    0.23076      0.00000     0.75425    0.01498     0.76924
      H   21    0.28001      0.00000     0.66740    0.05259     0.71999
      H   22    0.28237      0.00000     0.66566    0.05198     0.71763
      H   23    0.20703      0.00000     0.77785    0.01513     0.79297
      H   24    0.22051      0.00000     0.77222    0.00727     0.77949
      H   25    0.22738      0.00000     0.77004    0.00258     0.77262
      H   26    0.24175      0.00000     0.75619    0.00207     0.75825
      H   27    0.20703      0.00000     0.77785    0.01513     0.79297
      H   28    0.22051      0.00000     0.77222    0.00727     0.77949
 =======================================================================
   * Total *   -0.00000     19.99309    59.51617    0.49074    80.00000

 Normal termination of Gaussian 16 at Thu Jul 18 21:07:23 2024.
