 Gaussian 16, Revision A.03,

 -------------------------------------------------------
 # opt=CalcFc B3LYP/6-31G** SCRF=(Solvent=water) scf=xqc
 -------------------------------------------------------

 ----------------------------------
 QLBRROYTTDFLDX-OCAPTIKFSA-N_conf_1
 ----------------------------------
 Symbolic Z-matrix:
 Charge =  0 Multiplicity = 1

 SCF Done:  E(RB3LYP) =  -425.214426780     A.U. after   11 cycles
 SCF Done:  E(RB3LYP) =  -425.217372478     A.U. after    9 cycles
 SCF Done:  E(RB3LYP) =  -425.217442984     A.U. after    8 cycles
 SCF Done:  E(RB3LYP) =  -425.217442351     A.U. after    8 cycles
 SCF Done:  E(RB3LYP) =  -425.217444621     A.U. after    7 cycles
 SCF Done:  E(RB3LYP) =  -425.217444639     A.U. after    5 cycles
 Optimization completed.
    -- Stationary point found.
 Normal termination of Gaussian 16 at Thu Jul 18 20:56:33 2024.

 ----------------------------------------------------------------------
 # freq B3LYP/6-31G** SCRF=(Solvent=water) volume NMR pop=NPA density=c
 urrent Geom=AllCheck Guess=Read
 ----------------------------------------------------------------------

 Structure from the checkpoint file:  "QLBRROYTTDFLDX-OCAPTIKFSA-N_conf_1_1.chk"
 ----------------------------------
 QLBRROYTTDFLDX-OCAPTIKFSA-N_conf_1
 ----------------------------------
 Charge =  0 Multiplicity = 1

 SCF Done:  E(RB3LYP) =  -425.217444639     A.U. after    1 cycles

      1  N    Isotropic =   235.8405   Anisotropy =    30.3210

      2  C    Isotropic =   144.1363   Anisotropy =    36.9229

      3  C    Isotropic =   153.5296   Anisotropy =    21.0915

      4  C    Isotropic =   163.0114   Anisotropy =    20.7319

      5  C    Isotropic =   158.5863   Anisotropy =    16.3595

      6  C    Isotropic =   139.2495   Anisotropy =    29.2832

      7  N    Isotropic =   234.6669   Anisotropy =    31.1006

      8  C    Isotropic =   161.4710   Anisotropy =    14.5153

      9  C    Isotropic =   169.8400   Anisotropy =     7.4814

     10  C    Isotropic =   164.4198   Anisotropy =    16.1925

     11  H    Isotropic =    31.2140   Anisotropy =    11.0227

     12  H    Isotropic =    31.2142   Anisotropy =    16.1039

     13  H    Isotropic =    28.9873   Anisotropy =     4.8198

     14  H    Isotropic =    29.4953   Anisotropy =     5.9355

     15  H    Isotropic =    29.9662   Anisotropy =     7.5380

     16  H    Isotropic =    30.5135   Anisotropy =     7.3234

     17  H    Isotropic =    30.6487   Anisotropy =     6.5009

     18  H    Isotropic =    30.0924   Anisotropy =     4.5063

     19  H    Isotropic =    28.8205   Anisotropy =     6.3321

     20  H    Isotropic =    29.5731   Anisotropy =     4.6275

     21  H    Isotropic =    31.7215   Anisotropy =    12.1145

     22  H    Isotropic =    31.1678   Anisotropy =    16.0448

     23  H    Isotropic =    30.5612   Anisotropy =     7.7883

     24  H    Isotropic =    29.7743   Anisotropy =     7.9371

     25  H    Isotropic =    30.2551   Anisotropy =     8.8054

     26  H    Isotropic =    30.2654   Anisotropy =    10.5075

     27  H    Isotropic =    30.7130   Anisotropy =     6.3343

     28  H    Isotropic =    30.3324   Anisotropy =     9.6584

  Exact polarizability: 132.510   0.094 124.910   1.219  -1.437 117.030
 Approx polarizability: 133.925   0.519 129.532   0.899  -1.349 132.337

                      1                      2                      3
                      A                      A                      A
 Frequencies --     49.2723                94.4706               106.3775
 Red. masses --      3.1160                 2.5343                 2.0910
 Frc consts  --      0.0045                 0.0133                 0.0139
 IR Inten    --      1.0433                 1.5990                20.1520

                      4                      5                      6
                      A                      A                      A
 Frequencies --    139.4405               172.3918               210.6327
 Red. masses --      1.9649                 2.1120                 2.2906
 Frc consts  --      0.0225                 0.0370                 0.0599
 IR Inten    --      3.5769                10.8452                 1.1954

                      7                      8                      9
                      A                      A                      A
 Frequencies --    231.6638               251.5336               297.2847
 Red. masses --      1.3839                 1.1648                 2.0177
 Frc consts  --      0.0438                 0.0434                 0.1051
 IR Inten    --     78.1213                36.8784                14.6288

                     10                     11                     12
                      A                      A                      A
 Frequencies --    351.0983               361.1124               417.0096
 Red. masses --      2.6314                 4.0444                 1.9331
 Frc consts  --      0.1911                 0.3107                 0.1981
 IR Inten    --      1.3198                 3.8744                 1.7327

                     13                     14                     15
                      A                      A                      A
 Frequencies --    440.1106               482.3516               529.0609
 Red. masses --      2.5329                 2.7347                 3.2856
 Frc consts  --      0.2891                 0.3749                 0.5418
 IR Inten    --      1.5702                15.6459                 8.8333

                     16                     17                     18
                      A                      A                      A
 Frequencies --    578.2248               771.6894               812.6426
 Red. masses --      2.0367                 1.9107                 2.3263
 Frc consts  --      0.4012                 0.6704                 0.9052
 IR Inten    --      3.7374                 1.0665                 3.7059

                     19                     20                     21
                      A                      A                      A
 Frequencies --    844.9987               856.4054               874.2969
 Red. masses --      1.4723                 1.3309                 1.7374
 Frc consts  --      0.6194                 0.5751                 0.7825
 IR Inten    --     42.5728                 7.7162               130.4367

                     22                     23                     24
                      A                      A                      A
 Frequencies --    894.9082               916.0591               948.9011
 Red. masses --      1.6252                 1.6113                 2.1133
 Frc consts  --      0.7668                 0.7966                 1.1211
 IR Inten    --     84.3788                82.4715                14.8001

                     25                     26                     27
                      A                      A                      A
 Frequencies --    964.6466               979.8408              1014.0829
 Red. masses --      1.6182                 1.9533                 2.0090
 Frc consts  --      0.8872                 1.1049                 1.2172
 IR Inten    --     27.4397                 0.9077                40.5513

                     28                     29                     30
                      A                      A                      A
 Frequencies --   1039.6550              1065.6932              1080.2593
 Red. masses --      1.9149                 1.7268                 1.8032
 Frc consts  --      1.2195                 1.1555                 1.2398
 IR Inten    --     11.6397                 4.6027                 3.5472

                     31                     32                     33
                      A                      A                      A
 Frequencies --   1087.6302              1096.7447              1111.4488
 Red. masses --      2.1872                 2.1964                 2.3835
 Frc consts  --      1.5244                 1.5566                 1.7348
 IR Inten    --      5.3873                 2.5670                 4.9886

                     34                     35                     36
                      A                      A                      A
 Frequencies --   1139.2135              1166.2490              1194.1391
 Red. masses --      1.4177                 1.5475                 1.6125
 Frc consts  --      1.0840                 1.2401                 1.3547
 IR Inten    --      4.0433                 4.1538                 5.6969

                     37                     38                     39
                      A                      A                      A
 Frequencies --   1215.5101              1231.0272              1245.0038
 Red. masses --      1.4432                 1.2538                 1.3076
 Frc consts  --      1.2563                 1.1195                 1.1941
 IR Inten    --      1.0035                 1.8817                 4.4685

                     40                     41                     42
                      A                      A                      A
 Frequencies --   1297.8191              1306.9849              1314.8546
 Red. masses --      1.2183                 1.2903                 1.2489
 Frc consts  --      1.2090                 1.2986                 1.2721
 IR Inten    --      1.9201                 6.7617                 2.0675

                     43                     44                     45
                      A                      A                      A
 Frequencies --   1328.1851              1338.6263              1343.3975
 Red. masses --      1.2830                 1.2646                 1.2519
 Frc consts  --      1.3335                 1.3351                 1.3311
 IR Inten    --      0.8477                 2.3800                 0.7390

                     46                     47                     48
                      A                      A                      A
 Frequencies --   1371.9067              1381.9395              1388.3444
 Red. masses --      1.4397                 1.2797                 1.4771
 Frc consts  --      1.5965                 1.4399                 1.6775
 IR Inten    --      5.2131                 3.3757                 2.4630

                     49                     50                     51
                      A                      A                      A
 Frequencies --   1392.4054              1405.0469              1432.8145
 Red. masses --      1.3864                 1.4694                 1.4631
 Frc consts  --      1.5837                 1.7091                 1.7697
 IR Inten    --      1.5371                 0.2913                20.7587

                     52                     53                     54
                      A                      A                      A
 Frequencies --   1435.8217              1491.2287              1497.5181
 Red. masses --      1.4529                 1.0821                 1.0901
 Frc consts  --      1.7647                 1.4178                 1.4404
 IR Inten    --     16.7836                 0.4585                 0.6046

                     55                     56                     57
                      A                      A                      A
 Frequencies --   1502.6424              1512.1282              1515.4665
 Red. masses --      1.0847                 1.0895                 1.0862
 Frc consts  --      1.4430                 1.4677                 1.4698
 IR Inten    --      5.0297                 2.3420                 3.8321

                     58                     59                     60
                      A                      A                      A
 Frequencies --   1519.8726              1654.8814              1657.5984
 Red. masses --      1.0898                 1.0871                 1.0857
 Frc consts  --      1.4832                 1.7542                 1.7577
 IR Inten    --      2.3838                35.4331                46.0650

                     61                     62                     63
                      A                      A                      A
 Frequencies --   2944.1170              2951.4559              2988.9705
 Red. masses --      1.0722                 1.0716                 1.0810
 Frc consts  --      5.4754                 5.4999                 5.6902
 IR Inten    --    103.6219               136.6203                24.5153

                     64                     65                     66
                      A                      A                      A
 Frequencies --   3015.0087              3020.6200              3025.4816
 Red. masses --      1.0696                 1.0674                 1.0645
 Frc consts  --      5.7284                 5.7382                 5.7412
 IR Inten    --     50.6158                22.7275                28.3029

                     67                     68                     69
                      A                      A                      A
 Frequencies --   3032.3025              3037.8582              3041.0626
 Red. masses --      1.0750                 1.0767                 1.0790
 Frc consts  --      5.8237                 5.8546                 5.8790
 IR Inten    --    100.7785                13.2842               152.0653

                     70                     71                     72
                      A                      A                      A
 Frequencies --   3049.9462              3059.1815              3066.6649
 Red. masses --      1.0896                 1.1026                 1.1002
 Frc consts  --      5.9717                 6.0796                 6.0962
 IR Inten    --     58.7364               100.5361                25.3207

                     73                     74                     75
                      A                      A                      A
 Frequencies --   3070.5169              3089.0455              3475.0783
 Red. masses --      1.0964                 1.1002                 1.0510
 Frc consts  --      6.0903                 6.1854                 7.4777
 IR Inten    --    144.5661               121.6399                 1.8968

                     76                     77                     78
                      A                      A                      A
 Frequencies --   3481.3773              3553.9466              3555.3817
 Red. masses --      1.0509                 1.0912                 1.0909
 Frc consts  --      7.5043                 8.1205                 8.1248
 IR Inten    --      2.1869                 0.1831                 0.1112

 - Thermochemistry -
 -------------------
 Temperature   298.150 Kelvin.  Pressure   1.00000 Atm.
 Atom     1 has atomic number  7 and mass  14.00307

 Molecular mass:   142.14700 amu.
 Principal axes and moments of inertia in atomic units:
                           1         2         3
     Eigenvalues --   980.693632217.074732898.67470
           X            0.99997  -0.00518   0.00620
           Y            0.00517   0.99999   0.00171
           Z           -0.00620  -0.00168   0.99998
 This molecule is an asymmetric top.
 Rotational symmetry number  1.
 Warning -- assumption of classical behavior for rotation
           may cause significant error
 Rotational temperatures (Kelvin)      0.08832     0.03907     0.02988
 Rotational constants (GHZ):           1.84027     0.81402     0.62261
 Zero-point vibrational energy     686719.8 (Joules/Mol)
                                  164.12996 (Kcal/Mol)
 Warning -- explicit consideration of  16 degrees of freedom as
           vibrations may cause significant error
 Vibrational temperatures:     70.89   135.92   153.05   200.62   248.03
          (Kelvin)            303.05   333.31   361.90   427.73   505.15
                              519.56   599.98   633.22   694.00   761.20
                              831.94  1110.29  1169.21  1215.76  1232.18
                             1257.92  1287.57  1318.00  1365.26  1387.91
                             1409.77  1459.04  1495.83  1533.29  1554.25
                             1564.86  1577.97  1599.13  1639.07  1677.97
                             1718.10  1748.85  1771.17  1791.28  1867.27
                             1880.46  1891.78  1910.96  1925.98  1932.85
                             1973.87  1988.30  1997.52  2003.36  2021.55
                             2061.50  2065.83  2145.55  2154.59  2161.97
                             2175.62  2180.42  2186.76  2381.01  2384.91
                             4235.93  4246.49  4300.46  4337.93  4346.00
                             4352.99  4362.81  4370.80  4375.41  4388.19
                             4401.48  4412.25  4417.79  4444.45  4999.86
                             5008.93  5113.34  5115.40

 Zero-point correction=                           0.261558 (Hartree/Particle)
 Thermal correction to Energy=                    0.272846
 Thermal correction to Enthalpy=                  0.273790
 Thermal correction to Gibbs Free Energy=         0.224649
 Sum of electronic and zero-point Energies=           -424.955887
 Sum of electronic and thermal Energies=              -424.944599
 Sum of electronic and thermal Enthalpies=            -424.943655
 Sum of electronic and thermal Free Energies=         -424.992796

                     E (Thermal)             CV                S
                      KCal/Mol        Cal/Mol-Kelvin    Cal/Mol-Kelvin
 Total                  171.213             42.912            103.426
 Electronic               0.000              0.000              0.000
 Translational            0.889              2.981             40.766
 Rotational               0.889              2.981             30.223
 Vibrational            169.436             36.950             32.437
 Vibration     1          0.595              1.978              4.846
 Vibration     2          0.603              1.953              3.565
 Vibration     3          0.605              1.944              3.334
 Vibration     4          0.615              1.914              2.812
 Vibration     5          0.626              1.876              2.409
 Vibration     6          0.643              1.825              2.038
 Vibration     7          0.653              1.793              1.866
 Vibration     8          0.664              1.760              1.720
 Vibration     9          0.691              1.679              1.432
 Vibration    10          0.728              1.573              1.161
 Vibration    11          0.735              1.552              1.117
 Vibration    12          0.780              1.433              0.902
 Vibration    13          0.800              1.383              0.826
 Vibration    14          0.839              1.289              0.704
 Vibration    15          0.884              1.186              0.589
 Vibration    16          0.935              1.078              0.489

 Optimization completed.
    -- Stationary point found.
 Normal termination of Gaussian 16 at Thu Jul 18 21:07:43 2024.
 Gaussian 16:  ES64L-G16RevA.03 25-Dec-2016

 ----------------------------------------------------------------------
 # TD(NStates=10, Root=1) B3LYP/6-31G** SCRF=(Solvent=water) volume pop
 =NPA density=current Geom=AllCheck Guess=Read
 ----------------------------------------------------------------------

 Structure from the checkpoint file:  "QLBRROYTTDFLDX-OCAPTIKFSA-N_conf_1_2.chk"
 ----------------------------------
 QLBRROYTTDFLDX-OCAPTIKFSA-N_conf_1
 ----------------------------------
 Charge =  0 Multiplicity = 1

                         Standard orientation:
 ---------------------------------------------------------------------
 Center     Atomic      Atomic             Coordinates (Angstroms)
 Number     Number       Type             X           Y           Z
 ---------------------------------------------------------------------
      1          7           0       -3.126845   -1.528809    0.117478
      2          6           0       -2.386063   -0.488754   -0.615838
      3          6           0       -1.473424    0.333867    0.305953
      4          6           0       -0.240296   -0.469288    0.809826
      5          6           0        1.008957   -0.234171   -0.056316
      6          6           0        2.139870   -1.200058    0.316748
      7          7           0        3.323198   -1.010869   -0.538264
      8          6           0        1.444133    1.249440    0.029106
      9          6           0        0.246268    2.210161    0.219475
     10          6           0       -1.032216    1.637423   -0.402701
     11          1           0       -2.472368   -2.233803    0.452763
     12          1           0       -3.728302   -2.025007   -0.537815
     13          1           0       -1.781996   -0.885322   -1.452140
     14          1           0       -3.127288    0.184533   -1.064692
     15          1           0       -2.077260    0.606954    1.181202
     16          1           0       -0.008106   -0.179258    1.843101
     17          1           0       -0.470274   -1.541741    0.848863
     18          1           0        0.732465   -0.452913   -1.099804
     19          1           0        1.745755   -2.231085    0.290387
     20          1           0        2.443776   -1.009370    1.355093
     21          1           0        3.083773   -1.282826   -1.491079
     22          1           0        4.047640   -1.665812   -0.249676
     23          1           0        2.148962    1.371205    0.861749
     24          1           0        1.999075    1.512978   -0.876965
     25          1           0        0.069010    2.380613    1.289548
     26          1           0        0.477735    3.191535   -0.209903
     27          1           0       -0.852952    1.436102   -1.468659
     28          1           0       -1.847487    2.369244   -0.363988
 ---------------------------------------------------------------------

 SCF Done:  E(RB3LYP) =  -425.217444639     A.U. after    1 cycles

 Excitation energies and oscillator strengths:

 Excited State   1:      Singlet-A      7.3079 eV  169.66 nm  f=0.0114  <S**2>=0.000
      39 -> 41         0.61793
      39 -> 42        -0.19682
      39 -> 43         0.25460
 This state for optimization and/or second-order correction.
 Total Energy, E(TD-HF/TD-DFT) =  -424.948883292
 Copying the excited state density for this state as the 1-particle RhoCI density.

 Excited State   2:      Singlet-A      7.3469 eV  168.76 nm  f=0.0165  <S**2>=0.000
      40 -> 41         0.49143
      40 -> 42         0.48672

 Excited State   3:      Singlet-A      7.8543 eV  157.86 nm  f=0.0082  <S**2>=0.000
      40 -> 41         0.49482
      40 -> 42        -0.47122
      40 -> 44         0.11454

 Excited State   4:      Singlet-A      8.0880 eV  153.29 nm  f=0.0088  <S**2>=0.000
      39 -> 41        -0.32545
      39 -> 42        -0.24179
      39 -> 43         0.50842
      39 -> 44        -0.24165
      39 -> 46         0.10481

 Excited State   5:      Singlet-A      8.2408 eV  150.45 nm  f=0.0106  <S**2>=0.000
      39 -> 42         0.56622
      39 -> 43         0.34966
      39 -> 44         0.10701
      40 -> 43         0.13203

 Excited State   6:      Singlet-A      8.2548 eV  150.20 nm  f=0.0092  <S**2>=0.000
      39 -> 42        -0.12321
      39 -> 43        -0.10181
      40 -> 43         0.54117
      40 -> 44         0.37578
      40 -> 47         0.11006

 Excited State   7:      Singlet-A      8.4965 eV  145.92 nm  f=0.0568  <S**2>=0.000
      39 -> 42        -0.16211
      39 -> 43         0.14409
      39 -> 44         0.57864
      39 -> 45         0.29174
      39 -> 47        -0.12705

 Excited State   8:      Singlet-A      8.5362 eV  145.24 nm  f=0.0039  <S**2>=0.000
      40 -> 42         0.11374
      40 -> 43        -0.40851
      40 -> 44         0.54648

 Excited State   9:      Singlet-A      8.7296 eV  142.03 nm  f=0.0164  <S**2>=0.000
      39 -> 42         0.18778
      39 -> 44        -0.26442
      39 -> 45         0.53672
      39 -> 46         0.23602
      39 -> 47        -0.13895

 Excited State  10:      Singlet-A      8.9471 eV  138.57 nm  f=0.0007  <S**2>=0.000
      38 -> 41         0.69198

 The electronic state is 1-A.
 Alpha  occ. eigenvalues --  -14.30779 -14.30774 -10.19872 -10.19867 -10.17853
 Alpha  occ. eigenvalues --  -10.17803 -10.17289 -10.17260 -10.17239 -10.16942
 Alpha  occ. eigenvalues --   -0.87557  -0.87208  -0.81836  -0.74604  -0.73454
 Alpha  occ. eigenvalues --   -0.65015  -0.64711  -0.59314  -0.56977  -0.52054
 Alpha  occ. eigenvalues --   -0.49110  -0.47885  -0.46050  -0.45044  -0.44259
 Alpha  occ. eigenvalues --   -0.43231  -0.40538  -0.39730  -0.39309  -0.36793
 Alpha  occ. eigenvalues --   -0.35622  -0.34741  -0.34228  -0.33534  -0.32973
 Alpha  occ. eigenvalues --   -0.29239  -0.29123  -0.28841  -0.23472  -0.23375
 Alpha virt. eigenvalues --    0.07530   0.09073   0.09776   0.10706   0.12404
 Alpha virt. eigenvalues --    0.13574   0.14266   0.15508   0.15909   0.16425
 Alpha virt. eigenvalues --    0.17504   0.18319   0.18520   0.18631   0.19325

 Mulliken charges:
               1
     1  N   -0.104649
     2  C   -0.090671
     3  C   -0.050396
     4  C   -0.117752
     5  C   -0.046109
     6  C   -0.043530
     7  N   -0.643030
     8  C   -0.146986
     9  C   -0.188163
    10  C   -0.181588
    11  H    0.019624
    12  H    0.092077
    13  H    0.119624
    14  H    0.107224
    15  H    0.097701
    16  H    0.060107
    17  H   -0.056677
    18  H    0.040478
    19  H    0.058983
    20  H    0.088268
    21  H    0.243222
    22  H    0.247046
    23  H    0.077969
    24  H    0.074990
    25  H    0.088870
    26  H    0.078071
    27  H    0.091015
    28  H    0.084281
 Sum of Mulliken charges =  -0.00000

 Dipole moment (field-independent basis, Debye):
    X=             -3.1969    Y=             -0.9012    Z=             -1.1070  Tot=              3.5011
 Quadrupole moment (field-independent basis, Debye-Ang):
   XX=            -61.6469   YY=            -66.9053   ZZ=            -64.6547
   XY=             -4.2484   XZ=              0.9075   YZ=              2.5484

 Summary of Natural Population Analysis:

                                       Natural Population
                Natural  -----------------------------------------------
    Atom  No    Charge         Core      Valence    Rydberg      Total
 -----------------------------------------------------------------------
      N    1   -0.36425      1.99932     5.34519    0.01973     7.36425
      C    2   -0.34643      1.99921     4.32897    0.01825     6.34643
      C    3   -0.26445      1.99921     4.25081    0.01443     6.26445
      C    4   -0.47755      1.99927     4.46365    0.01463     6.47755
      C    5   -0.27120      1.99921     4.25787    0.01413     6.27120
      C    6   -0.25086      1.99930     4.23662    0.01493     6.25086
      N    7   -0.92890      1.99968     5.91472    0.01450     7.92890
      C    8   -0.46086      1.99932     4.44848    0.01306     6.46086
      C    9   -0.46507      1.99934     4.45439    0.01134     6.46507
      C   10   -0.46654      1.99931     4.45580    0.01143     6.46654
      H   11    0.19499      0.00000     0.72824    0.07676     0.80501
      H   12    0.25101      0.00000     0.68166    0.06733     0.74899
      H   13    0.25436      0.00000     0.71470    0.03094     0.74564
      H   14    0.23276      0.00000     0.74936    0.01788     0.76724
      H   15    0.25354      0.00000     0.74042    0.00603     0.74646
      H   16    0.21810      0.00000     0.77363    0.00827     0.78190
      H   17    0.12878      0.00000     0.82593    0.04529     0.87122
      H   18    0.20211      0.00000     0.78255    0.01534     0.79789
      H   19    0.19303      0.00000     0.79990    0.00707     0.80697
      H   20    0.21748      0.00000     0.77907    0.00345     0.78252
      H   21    0.37904      0.00000     0.61688    0.00407     0.62096
      H   22    0.38731      0.00000     0.60966    0.00302     0.61269
      H   23    0.23054      0.00000     0.76614    0.00332     0.76946
      H   24    0.22589      0.00000     0.76876    0.00535     0.77411
      H   25    0.22807      0.00000     0.76801    0.00392     0.77193
      H   26    0.23532      0.00000     0.76018    0.00449     0.76468
      H   27    0.22609      0.00000     0.76972    0.00419     0.77391
      H   28    0.23612      0.00000     0.75882    0.00506     0.76388
 =======================================================================
   * Total *   -0.00153     19.99317    59.55015    0.45821    80.00153

 Normal termination of Gaussian 16 at Thu Jul 18 21:22:01 2024.
