 Gaussian 16, Revision A.03,

 -------------------------------------------------------
 # opt=CalcFc B3LYP/6-31G** SCRF=(Solvent=water) scf=xqc
 -------------------------------------------------------

 ----------------------------------
 QLBRROYTTDFLDX-OCAPTIKFSA-N_conf_2
 ----------------------------------
 Symbolic Z-matrix:
 Charge =  0 Multiplicity = 1

 SCF Done:  E(RB3LYP) =  -425.214569028     A.U. after   11 cycles
 SCF Done:  E(RB3LYP) =  -425.217522924     A.U. after    9 cycles
 SCF Done:  E(RB3LYP) =  -425.217757683     A.U. after    9 cycles
 SCF Done:  E(RB3LYP) =  -425.217775119     A.U. after    8 cycles
 SCF Done:  E(RB3LYP) =  -425.217777444     A.U. after    7 cycles
 SCF Done:  E(RB3LYP) =  -425.217777510     A.U. after    6 cycles
 Optimization completed.
    -- Stationary point found.
 Normal termination of Gaussian 16 at Thu Jul 18 21:05:36 2024.

 ----------------------------------------------------------------------
 # freq B3LYP/6-31G** SCRF=(Solvent=water) volume NMR pop=NPA density=c
 urrent Geom=AllCheck Guess=Read
 ----------------------------------------------------------------------

 Structure from the checkpoint file:  "QLBRROYTTDFLDX-OCAPTIKFSA-N_conf_2_1.chk"
 ----------------------------------
 QLBRROYTTDFLDX-OCAPTIKFSA-N_conf_2
 ----------------------------------
 Charge =  0 Multiplicity = 1

 SCF Done:  E(RB3LYP) =  -425.217777510     A.U. after    1 cycles

      1  N    Isotropic =   235.1087   Anisotropy =    27.9812

      2  C    Isotropic =   141.8859   Anisotropy =    38.0337

      3  C    Isotropic =   154.6955   Anisotropy =    19.0171

      4  C    Isotropic =   163.2064   Anisotropy =    16.5674

      5  C    Isotropic =   154.4510   Anisotropy =    15.9155

      6  C    Isotropic =   141.1577   Anisotropy =    33.9656

      7  N    Isotropic =   236.8454   Anisotropy =    29.0769

      8  C    Isotropic =   164.5205   Anisotropy =    13.1017

      9  C    Isotropic =   171.1110   Anisotropy =    10.2517

     10  C    Isotropic =   163.1463   Anisotropy =    18.6849

     11  H    Isotropic =    31.0432   Anisotropy =    16.1244

     12  H    Isotropic =    31.1892   Anisotropy =    11.3202

     13  H    Isotropic =    29.2518   Anisotropy =     5.5569

     14  H    Isotropic =    29.3003   Anisotropy =     6.0378

     15  H    Isotropic =    30.0997   Anisotropy =     6.2052

     16  H    Isotropic =    31.1370   Anisotropy =     5.6214

     17  H    Isotropic =    29.9927   Anisotropy =     6.2280

     18  H    Isotropic =    29.9520   Anisotropy =     7.0197

     19  H    Isotropic =    29.4134   Anisotropy =     6.6517

     20  H    Isotropic =    28.8931   Anisotropy =     4.9887

     21  H    Isotropic =    31.3542   Anisotropy =    10.9505

     22  H    Isotropic =    31.1722   Anisotropy =    16.3575

     23  H    Isotropic =    30.7743   Anisotropy =     8.6673

     24  H    Isotropic =    30.1086   Anisotropy =     8.7545

     25  H    Isotropic =    30.3051   Anisotropy =     7.5122

     26  H    Isotropic =    30.4524   Anisotropy =    10.7241

     27  H    Isotropic =    30.1824   Anisotropy =     9.3022

     28  H    Isotropic =    30.7655   Anisotropy =     7.5914

  Exact polarizability: 133.390   0.162 129.111   0.461   1.062 111.698
 Approx polarizability: 134.660  -0.286 134.449  -0.446   0.528 126.697

                      1                      2                      3
                      A                      A                      A
 Frequencies --     55.8801               103.5742               115.2196
 Red. masses --      2.7738                 2.9511                 2.9379
 Frc consts  --      0.0051                 0.0187                 0.0230
 IR Inten    --      0.3177                 4.3781                 1.6212

                      4                      5                      6
                      A                      A                      A
 Frequencies --    129.8606               161.4957               223.2123
 Red. masses --      2.0762                 1.9077                 1.6095
 Frc consts  --      0.0206                 0.0293                 0.0472
 IR Inten    --     21.2791                 5.1220                22.9856

                      7                      8                      9
                      A                      A                      A
 Frequencies --    249.2999               268.6023               286.9357
 Red. masses --      1.3395                 1.3874                 1.8724
 Frc consts  --      0.0491                 0.0590                 0.0908
 IR Inten    --    100.7491                 3.7863                34.8805

                     10                     11                     12
                      A                      A                      A
 Frequencies --    353.7138               379.5328               415.2614
 Red. masses --      2.9350                 2.5409                 2.4907
 Frc consts  --      0.2164                 0.2156                 0.2531
 IR Inten    --      1.5784                 3.0501                 0.8241

                     13                     14                     15
                      A                      A                      A
 Frequencies --    441.0675               462.4006               535.1246
 Red. masses --      2.5920                 2.7569                 3.1954
 Frc consts  --      0.2971                 0.3473                 0.5391
 IR Inten    --      0.0358                 7.8265                 8.5707

                     16                     17                     18
                      A                      A                      A
 Frequencies --    585.8485               773.1244               808.3318
 Red. masses --      1.8837                 2.2894                 1.5982
 Frc consts  --      0.3809                 0.8062                 0.6153
 IR Inten    --      1.8744                 2.3802                 2.2651

                     19                     20                     21
                      A                      A                      A
 Frequencies --    850.2608               865.5655               877.2349
 Red. masses --      1.3912                 2.1726                 1.4967
 Frc consts  --      0.5926                 0.9590                 0.6786
 IR Inten    --     73.7492                23.1318                 8.3208

                     22                     23                     24
                      A                      A                      A
 Frequencies --    889.6272               908.6492               947.2439
 Red. masses --      1.7051                 1.3824                 2.1922
 Frc consts  --      0.7951                 0.6725                 1.1589
 IR Inten    --     23.5329               242.6316                 9.1374

                     25                     26                     27
                      A                      A                      A
 Frequencies --    950.9603               991.0058              1007.2479
 Red. masses --      1.9053                 1.5481                 1.8290
 Frc consts  --      1.0152                 0.8958                 1.0933
 IR Inten    --      2.9311                40.2106                10.3151

                     28                     29                     30
                      A                      A                      A
 Frequencies --   1047.7011              1053.9598              1086.2220
 Red. masses --      2.2722                 2.0338                 2.7705
 Frc consts  --      1.4695                 1.3311                 1.9260
 IR Inten    --     10.1436                 6.4989                 5.3667

                     31                     32                     33
                      A                      A                      A
 Frequencies --   1088.0601              1100.8870              1128.0408
 Red. masses --      1.8566                 2.1973                 2.2826
 Frc consts  --      1.2950                 1.5690                 1.7113
 IR Inten    --      1.4755                 1.3002                 2.2100

                     34                     35                     36
                      A                      A                      A
 Frequencies --   1137.7724              1167.4458              1183.6443
 Red. masses --      1.0864                 2.1112                 1.2890
 Frc consts  --      0.8286                 1.6953                 1.0640
 IR Inten    --      5.1571                19.6104                 0.5878

                     37                     38                     39
                      A                      A                      A
 Frequencies --   1223.3540              1233.9716              1261.5989
 Red. masses --      1.2784                 1.5569                 1.3262
 Frc consts  --      1.1272                 1.3967                 1.2437
 IR Inten    --      2.5458                 1.3633                 5.0915

                     40                     41                     42
                      A                      A                      A
 Frequencies --   1284.5857              1298.3834              1320.4903
 Red. masses --      1.2889                 1.2490                 1.2050
 Frc consts  --      1.2531                 1.2406                 1.2380
 IR Inten    --      2.3787                 0.5911                 6.1099

                     43                     44                     45
                      A                      A                      A
 Frequencies --   1330.5100              1350.7380              1354.4073
 Red. masses --      1.3160                 1.2581                 1.1948
 Frc consts  --      1.3726                 1.3524                 1.2913
 IR Inten    --      3.5100                 0.9116                 2.9037

                     46                     47                     48
                      A                      A                      A
 Frequencies --   1361.8848              1381.1196              1389.2658
 Red. masses --      1.4406                 1.2958                 1.3761
 Frc consts  --      1.5742                 1.4563                 1.5648
 IR Inten    --      2.3020                 3.0919                 1.0576

                     49                     50                     51
                      A                      A                      A
 Frequencies --   1392.7299              1404.6535              1430.8750
 Red. masses --      1.4336                 1.4785                 1.4506
 Frc consts  --      1.6383                 1.7187                 1.7498
 IR Inten    --      3.2120                 4.5418                15.1091

                     52                     53                     54
                      A                      A                      A
 Frequencies --   1436.5029              1493.6228              1498.6736
 Red. masses --      1.4604                 1.0809                 1.0935
 Frc consts  --      1.7755                 1.4207                 1.4470
 IR Inten    --     21.7861                 0.0468                 0.4416

                     55                     56                     57
                      A                      A                      A
 Frequencies --   1503.5462              1510.8676              1513.4975
 Red. masses --      1.0851                 1.0845                 1.0875
 Frc consts  --      1.4453                 1.4586                 1.4677
 IR Inten    --      5.0725                 3.8650                 1.2518

                     58                     59                     60
                      A                      A                      A
 Frequencies --   1518.7955              1658.8873              1659.6200
 Red. masses --      1.0897                 1.0866                 1.0861
 Frc consts  --      1.4810                 1.7618                 1.7625
 IR Inten    --      3.4855                39.0065                51.1261

                     61                     62                     63
                      A                      A                      A
 Frequencies --   2942.3464              2945.3674              2998.4526
 Red. masses --      1.0719                 1.0718                 1.0699
 Frc consts  --      5.4674                 5.4784                 5.6672
 IR Inten    --    103.2849               117.6181                31.0661

                     64                     65                     66
                      A                      A                      A
 Frequencies --   3018.9327              3020.7554              3022.0513
 Red. masses --      1.0808                 1.0769                 1.0626
 Frc consts  --      5.8036                 5.7896                 5.7177
 IR Inten    --     54.2593                22.8167                60.5409

                     67                     68                     69
                      A                      A                      A
 Frequencies --   3032.9482              3036.7298              3051.9578
 Red. masses --      1.0656                 1.0691                 1.0900
 Frc consts  --      5.7755                 5.8089                 5.9817
 IR Inten    --     93.7330                19.9463                77.7922

                     70                     71                     72
                      A                      A                      A
 Frequencies --   3056.2851              3060.2073              3066.9334
 Red. masses --      1.0899                 1.0998                 1.1011
 Frc consts  --      5.9982                 6.0682                 6.1022
 IR Inten    --     96.6925                49.7202                78.0684

                     73                     74                     75
                      A                      A                      A
 Frequencies --   3073.5918              3080.9083              3485.2799
 Red. masses --      1.0950                 1.1022                 1.0509
 Frc consts  --      6.0947                 6.1643                 7.5212
 IR Inten    --    101.0349               146.7219                 1.3160

                     76                     77                     78
                      A                      A                      A
 Frequencies --   3487.7952              3560.0430              3561.8858
 Red. masses --      1.0510                 1.0912                 1.0912
 Frc consts  --      7.5326                 8.1486                 8.1568
 IR Inten    --      1.4845                 0.0221                 0.0144

 - Thermochemistry -
 -------------------
 Temperature   298.150 Kelvin.  Pressure   1.00000 Atm.
 Atom     1 has atomic number  7 and mass  14.00307

 Molecular mass:   142.14700 amu.
 Principal axes and moments of inertia in atomic units:
                           1         2         3
     Eigenvalues --  1100.493392012.234212866.68203
           X            0.99999   0.00496   0.00187
           Y           -0.00498   0.99993   0.01085
           Z           -0.00181  -0.01086   0.99994
 This molecule is an asymmetric top.
 Rotational symmetry number  1.
 Warning -- assumption of classical behavior for rotation
           may cause significant error
 Rotational temperatures (Kelvin)      0.07870     0.04304     0.03021
 Rotational constants (GHZ):           1.63994     0.89688     0.62956
 Zero-point vibrational energy     687524.2 (Joules/Mol)
                                  164.32222 (Kcal/Mol)
 Warning -- explicit consideration of  16 degrees of freedom as
           vibrations may cause significant error
 Vibrational temperatures:     80.40   149.02   165.78   186.84   232.36
          (Kelvin)            321.15   358.69   386.46   412.84   508.92
                              546.06   597.47   634.60   665.29   769.92
                              842.91  1112.35  1163.01  1223.34  1245.36
                             1262.15  1279.98  1307.34  1362.87  1368.22
                             1425.84  1449.21  1507.41  1516.41  1562.83
                             1565.48  1583.93  1623.00  1637.00  1679.69
                             1703.00  1760.13  1775.41  1815.16  1848.23
                             1868.08  1899.89  1914.31  1943.41  1948.69
                             1959.45  1987.12  1998.84  2003.83  2020.98
                             2058.71  2066.81  2148.99  2156.26  2163.27
                             2173.80  2177.59  2185.21  2386.77  2387.82
                             4233.38  4237.73  4314.10  4343.57  4346.19
                             4348.06  4363.74  4369.18  4391.09  4397.31
                             4402.96  4412.63  4422.21  4432.74  5014.54
                             5018.16  5122.11  5124.76

 Zero-point correction=                           0.261864 (Hartree/Particle)
 Thermal correction to Energy=                    0.273069
 Thermal correction to Enthalpy=                  0.274013
 Thermal correction to Gibbs Free Energy=         0.225190
 Sum of electronic and zero-point Energies=           -424.955913
 Sum of electronic and thermal Energies=              -424.944708
 Sum of electronic and thermal Enthalpies=            -424.943764
 Sum of electronic and thermal Free Energies=         -424.992587

                     E (Thermal)             CV                S
                      KCal/Mol        Cal/Mol-Kelvin    Cal/Mol-Kelvin
 Total                  171.353             42.814            102.757
 Electronic               0.000              0.000              0.000
 Translational            0.889              2.981             40.766
 Rotational               0.889              2.981             30.230
 Vibrational            169.576             36.852             31.761
 Vibration     1          0.596              1.975              4.598
 Vibration     2          0.605              1.946              3.386
 Vibration     3          0.608              1.937              3.179
 Vibration     4          0.612              1.923              2.948
 Vibration     5          0.622              1.890              2.532
 Vibration     6          0.649              1.806              1.933
 Vibration     7          0.662              1.764              1.736
 Vibration     8          0.673              1.731              1.605
 Vibration     9          0.684              1.698              1.492
 Vibration    10          0.730              1.568              1.150
 Vibration    11          0.750              1.514              1.041
 Vibration    12          0.779              1.437              0.908
 Vibration    13          0.801              1.381              0.823
 Vibration    14          0.820              1.333              0.759
 Vibration    15          0.890              1.172              0.576
 Vibration    16          0.943              1.062              0.475

 Optimization completed.
    -- Stationary point found.
 Normal termination of Gaussian 16 at Thu Jul 18 21:15:44 2024.
 Gaussian 16:  ES64L-G16RevA.03 25-Dec-2016

 ----------------------------------------------------------------------
 # TD(NStates=10, Root=1) B3LYP/6-31G** SCRF=(Solvent=water) volume pop
 =NPA density=current Geom=AllCheck Guess=Read
 ----------------------------------------------------------------------

 Structure from the checkpoint file:  "QLBRROYTTDFLDX-OCAPTIKFSA-N_conf_2_2.chk"
 ----------------------------------
 QLBRROYTTDFLDX-OCAPTIKFSA-N_conf_2
 ----------------------------------
 Charge =  0 Multiplicity = 1

                         Standard orientation:
 ---------------------------------------------------------------------
 Center     Atomic      Atomic             Coordinates (Angstroms)
 Number     Number       Type             X           Y           Z
 ---------------------------------------------------------------------
      1          7           0       -2.864227   -1.701574    0.386374
      2          6           0       -2.579571   -0.418709   -0.276721
      3          6           0       -1.278845    0.223594    0.224542
      4          6           0       -0.021992   -0.584957   -0.138128
      5          6           0        1.245079   -0.026369    0.557026
      6          6           0        2.527507   -0.483270   -0.153449
      7          7           0        2.639965   -1.950707   -0.197394
      8          6           0        1.188478    1.523165    0.665971
      9          6           0        0.314301    2.143749   -0.431336
     10          6           0       -1.151669    1.674544   -0.308776
     11          1           0       -3.792967   -2.014508    0.110350
     12          1           0       -2.231777   -2.413346    0.025992
     13          1           0       -2.532147   -0.494472   -1.378195
     14          1           0       -3.411414    0.260206   -0.050538
     15          1           0       -1.344751    0.253878    1.321295
     16          1           0        0.108448   -0.562521   -1.231268
     17          1           0       -0.144820   -1.637944    0.138112
     18          1           0        1.277508   -0.443657    1.572398
     19          1           0        3.392305   -0.102710    0.403616
     20          1           0        2.567056   -0.011693   -1.152492
     21          1           0        1.956062   -2.318199   -0.856375
     22          1           0        3.544525   -2.198366   -0.594166
     23          1           0        2.203239    1.938279    0.626132
     24          1           0        0.782363    1.809009    1.644336
     25          1           0        0.715099    1.858791   -1.412312
     26          1           0        0.364213    3.237738   -0.390001
     27          1           0       -1.705830    2.347784    0.356749
     28          1           0       -1.637007    1.747218   -1.291271
 ---------------------------------------------------------------------

 SCF Done:  E(RB3LYP) =  -425.217777510     A.U. after    1 cycles

 Excitation energies and oscillator strengths:

 Excited State   1:      Singlet-A      7.3489 eV  168.71 nm  f=0.0181  <S**2>=0.000
      39 -> 41         0.50051
      39 -> 42        -0.19047
      39 -> 43         0.23767
      40 -> 41        -0.35459
      40 -> 43        -0.14431
 This state for optimization and/or second-order correction.
 Total Energy, E(TD-HF/TD-DFT) =  -424.947709525
 Copying the excited state density for this state as the 1-particle RhoCI density.

 Excited State   2:      Singlet-A      7.4205 eV  167.08 nm  f=0.0202  <S**2>=0.000
      39 -> 41         0.28122
      39 -> 42         0.22224
      40 -> 41         0.38074
      40 -> 42         0.44673
      40 -> 44         0.12487

 Excited State   3:      Singlet-A      7.9333 eV  156.28 nm  f=0.0039  <S**2>=0.000
      39 -> 41         0.26428
      39 -> 42        -0.21537
      40 -> 41         0.43875
      40 -> 42        -0.39335
      40 -> 43        -0.12727

 Excited State   4:      Singlet-A      8.1868 eV  151.44 nm  f=0.0053  <S**2>=0.000
      39 -> 41        -0.30568
      39 -> 42        -0.35568
      39 -> 43         0.35633
      40 -> 41         0.15939
      40 -> 42         0.21104
      40 -> 43        -0.25230

 Excited State   5:      Singlet-A      8.2792 eV  149.75 nm  f=0.0080  <S**2>=0.000
      39 -> 42         0.45816
      39 -> 43         0.35137
      39 -> 44        -0.11081
      39 -> 45        -0.11140
      40 -> 42        -0.24002
      40 -> 43        -0.25031

 Excited State   6:      Singlet-A      8.3477 eV  148.53 nm  f=0.0467  <S**2>=0.000
      39 -> 43         0.32279
      39 -> 44         0.11422
      40 -> 42        -0.15426
      40 -> 43         0.48321
      40 -> 44         0.28859
      40 -> 46         0.10334

 Excited State   7:      Singlet-A      8.4367 eV  146.96 nm  f=0.0153  <S**2>=0.000
      39 -> 43        -0.19537
      39 -> 44         0.22011
      40 -> 43        -0.23887
      40 -> 44         0.54930
      40 -> 46        -0.14638

 Excited State   8:      Singlet-A      8.5267 eV  145.41 nm  f=0.0775  <S**2>=0.000
      39 -> 44         0.60202
      39 -> 45        -0.17664
      40 -> 44        -0.23435
      40 -> 45         0.11765

 Excited State   9:      Singlet-A      8.8123 eV  140.69 nm  f=0.0100  <S**2>=0.000
      39 -> 42         0.11326
      39 -> 44         0.20277
      39 -> 45         0.38312
      39 -> 46        -0.26224
      39 -> 47        -0.24951
      40 -> 45        -0.25719
      40 -> 46         0.23489
      40 -> 47         0.12474

 Excited State  10:      Singlet-A      8.8624 eV  139.90 nm  f=0.0074  <S**2>=0.000
      39 -> 46         0.32640
      40 -> 43        -0.12447
      40 -> 44         0.11821
      40 -> 46         0.51465
      40 -> 47        -0.18846
      40 -> 50        -0.10875

 The electronic state is 1-A.
 Alpha  occ. eigenvalues --  -14.30819 -14.30807 -10.19923 -10.19865 -10.17829
 Alpha  occ. eigenvalues --  -10.17759 -10.17354 -10.17282 -10.17259 -10.17209
 Alpha  occ. eigenvalues --   -0.87610  -0.87229  -0.81859  -0.74783  -0.73357
 Alpha  occ. eigenvalues --   -0.65553  -0.64531  -0.59399  -0.56661  -0.51969
 Alpha  occ. eigenvalues --   -0.48679  -0.47879  -0.47822  -0.44799  -0.44510
 Alpha  occ. eigenvalues --   -0.42205  -0.41202  -0.39612  -0.38368  -0.38091
 Alpha  occ. eigenvalues --   -0.35244  -0.34695  -0.34508  -0.33767  -0.32793
 Alpha  occ. eigenvalues --   -0.29278  -0.29113  -0.28868  -0.23619  -0.23469
 Alpha virt. eigenvalues --    0.07726   0.09090   0.09866   0.10571   0.12394
 Alpha virt. eigenvalues --    0.13003   0.14833   0.15295   0.16087   0.16436
 Alpha virt. eigenvalues --    0.16731   0.17652   0.18414   0.19071   0.19429

 Mulliken charges:
               1
     1  N   -0.078940
     2  C   -0.105208
     3  C   -0.057310
     4  C   -0.121095
     5  C   -0.040923
     6  C   -0.056551
     7  N   -0.640395
     8  C   -0.187637
     9  C   -0.178656
    10  C   -0.178071
    11  H    0.048047
    12  H    0.001041
    13  H    0.134805
    14  H    0.097808
    15  H    0.091882
    16  H    0.055348
    17  H   -0.020419
    18  H    0.069833
    19  H    0.091943
    20  H    0.076812
    21  H    0.241436
    22  H    0.246007
    23  H    0.081067
    24  H    0.085225
    25  H    0.091264
    26  H    0.075585
    27  H    0.085761
    28  H    0.091340
 Sum of Mulliken charges =  -0.00000

 Dipole moment (field-independent basis, Debye):
    X=             -1.8429    Y=              1.2647    Z=             -1.5973  Tot=              2.7472
 Quadrupole moment (field-independent basis, Debye-Ang):
   XX=            -59.9281   YY=            -71.4102   ZZ=            -65.1670
   XY=              0.9261   XZ=             -3.5287   YZ=              3.3731

 Summary of Natural Population Analysis:

                                       Natural Population
                Natural  -----------------------------------------------
    Atom  No    Charge         Core      Valence    Rydberg      Total
 -----------------------------------------------------------------------
      N    1   -0.37003      1.99933     5.34810    0.02260     7.37003
      C    2   -0.34914      1.99923     4.33083    0.01908     6.34914
      C    3   -0.26638      1.99920     4.25339    0.01379     6.26638
      C    4   -0.49098      1.99927     4.47496    0.01675     6.49098
      C    5   -0.26591      1.99922     4.25125    0.01544     6.26591
      C    6   -0.25535      1.99930     4.24134    0.01471     6.25535
      N    7   -0.92436      1.99967     5.91006    0.01463     7.92436
      C    8   -0.46996      1.99931     4.45834    0.01230     6.46996
      C    9   -0.46601      1.99934     4.45522    0.01146     6.46601
      C   10   -0.46506      1.99932     4.45349    0.01225     6.46506
      H   11    0.22080      0.00000     0.70554    0.07365     0.77920
      H   12    0.18747      0.00000     0.73234    0.08019     0.81253
      H   13    0.26772      0.00000     0.70867    0.02362     0.73228
      H   14    0.22502      0.00000     0.75506    0.01991     0.77498
      H   15    0.24307      0.00000     0.74834    0.00859     0.75693
      H   16    0.21166      0.00000     0.77765    0.01070     0.78834
      H   17    0.15758      0.00000     0.80642    0.03600     0.84242
      H   18    0.23283      0.00000     0.76136    0.00582     0.76717
      H   19    0.22498      0.00000     0.77228    0.00274     0.77502
      H   20    0.19876      0.00000     0.79748    0.00376     0.80124
      H   21    0.37653      0.00000     0.61730    0.00616     0.62347
      H   22    0.38646      0.00000     0.60964    0.00391     0.61354
      H   23    0.23513      0.00000     0.76196    0.00291     0.76487
      H   24    0.23065      0.00000     0.76561    0.00374     0.76935
      H   25    0.22860      0.00000     0.76743    0.00397     0.77140
      H   26    0.23370      0.00000     0.76138    0.00491     0.76630
      H   27    0.22669      0.00000     0.76666    0.00665     0.77331
      H   28    0.23375      0.00000     0.76348    0.00277     0.76625
 =======================================================================
   * Total *   -0.00178     19.99318    59.55559    0.45301    80.00178

 Normal termination of Gaussian 16 at Thu Jul 18 21:28:41 2024.
