 Gaussian 16, Revision A.03,

 -------------------------------------------------------
 # opt=CalcFc B3LYP/6-31G** SCRF=(Solvent=water) scf=xqc
 -------------------------------------------------------

 ----------------------------------
 QOHMWDJIBGVPIF-UHFFFAOYSA-N_conf_0
 ----------------------------------
 Symbolic Z-matrix:
 Charge =  0 Multiplicity = 1

 SCF Done:  E(RB3LYP) =  -387.099760609     A.U. after   11 cycles
 SCF Done:  E(RB3LYP) =  -387.102367652     A.U. after    9 cycles
 SCF Done:  E(RB3LYP) =  -387.102416268     A.U. after    9 cycles
 SCF Done:  E(RB3LYP) =  -387.102417293     A.U. after    7 cycles
 SCF Done:  E(RB3LYP) =  -387.102417307     A.U. after    6 cycles
 Optimization completed.
    -- Stationary point found.
 Normal termination of Gaussian 16 at Thu Jul 11 18:30:01 2024.

 ----------------------------------------------------------------------
 # freq B3LYP/6-31G** SCRF=(Solvent=water) volume NMR pop=NPA density=c
 urrent Geom=AllCheck Guess=Read
 ----------------------------------------------------------------------

 Structure from the checkpoint file:  "QOHMWDJIBGVPIF-UHFFFAOYSA-N_conf_0_1.chk"
 ----------------------------------
 QOHMWDJIBGVPIF-UHFFFAOYSA-N_conf_0
 ----------------------------------
 Charge =  0 Multiplicity = 1

 SCF Done:  E(RB3LYP) =  -387.102417307     A.U. after    1 cycles

      1  N    Isotropic =   231.8256   Anisotropy =    25.6287

      2  C    Isotropic =   148.7563   Anisotropy =    38.4859

      3  C    Isotropic =   156.3971   Anisotropy =    37.6086

      4  C    Isotropic =   140.2722   Anisotropy =    48.3840

      5  N    Isotropic =   214.6925   Anisotropy =    59.9612

      6  C    Isotropic =   143.2894   Anisotropy =    52.3694

      7  C    Isotropic =   177.6602   Anisotropy =    21.0317

      8  C    Isotropic =   153.3038   Anisotropy =    38.4846

      9  C    Isotropic =   188.9096   Anisotropy =     7.0187

     10  H    Isotropic =    31.5100   Anisotropy =    12.4540

     11  H    Isotropic =    31.4848   Anisotropy =    12.9230

     12  H    Isotropic =    28.8599   Anisotropy =     6.7108

     13  H    Isotropic =    29.4253   Anisotropy =     5.6605

     14  H    Isotropic =    29.9601   Anisotropy =     3.3440

     15  H    Isotropic =    30.6386   Anisotropy =     7.0098

     16  H    Isotropic =    29.6154   Anisotropy =     6.0797

     17  H    Isotropic =    28.8104   Anisotropy =     6.1051

     18  H    Isotropic =    29.6140   Anisotropy =     7.1308

     19  H    Isotropic =    28.8826   Anisotropy =     6.5157

     20  H    Isotropic =    30.4152   Anisotropy =     7.2308

     21  H    Isotropic =    30.8862   Anisotropy =     8.5153

     22  H    Isotropic =    30.8061   Anisotropy =    10.6003

     23  H    Isotropic =    28.8380   Anisotropy =     6.4054

     24  H    Isotropic =    28.8953   Anisotropy =     6.6753

     25  H    Isotropic =    30.6796   Anisotropy =     8.1903

     26  H    Isotropic =    30.7185   Anisotropy =     8.4652

     27  H    Isotropic =    31.5268   Anisotropy =    10.7740

  Exact polarizability: 123.930   3.812 112.649   2.599  -4.285 109.629
 Approx polarizability: 124.720   2.638 119.841   1.953  -4.933 120.256

                      1                      2                      3
                      A                      A                      A
 Frequencies --     33.6070                60.0768                82.9038
 Red. masses --      3.2325                 2.6223                 2.6844
 Frc consts  --      0.0022                 0.0056                 0.0109
 IR Inten    --      0.1760                 0.0653                 0.0376

                      4                      5                      6
                      A                      A                      A
 Frequencies --     92.7294               137.3906               216.0783
 Red. masses --      1.6561                 1.8095                 1.6301
 Frc consts  --      0.0084                 0.0201                 0.0448
 IR Inten    --      3.8601                 0.2518                 2.5229

                      7                      8                      9
                      A                      A                      A
 Frequencies --    228.3278               247.3941               292.7828
 Red. masses --      1.2950                 2.2977                 1.5964
 Frc consts  --      0.0398                 0.0829                 0.0806
 IR Inten    --      1.4663                 5.6555                 7.1586

                     10                     11                     12
                      A                      A                      A
 Frequencies --    299.5129               308.4461               335.5549
 Red. masses --      1.3194                 1.7603                 2.3121
 Frc consts  --      0.0697                 0.0987                 0.1534
 IR Inten    --     38.9456                27.0020                 5.1896

                     13                     14                     15
                      A                      A                      A
 Frequencies --    383.4204               482.4195               495.2556
 Red. masses --      2.2419                 2.4036                 2.4874
 Frc consts  --      0.1942                 0.3296                 0.3595
 IR Inten    --      0.5276                 3.4870                16.0649

                     16                     17                     18
                      A                      A                      A
 Frequencies --    558.0561               728.8910               781.3368
 Red. masses --      2.6403                 1.8564                 1.1428
 Frc consts  --      0.4845                 0.5811                 0.4111
 IR Inten    --      2.2749                14.2229                 8.9577

                     19                     20                     21
                      A                      A                      A
 Frequencies --    783.9157               818.4852               857.0269
 Red. masses --      1.4427                 1.1627                 1.8876
 Frc consts  --      0.5224                 0.4589                 0.8169
 IR Inten    --      7.6809                 3.2047                47.5088

                     22                     23                     24
                      A                      A                      A
 Frequencies --    915.7673               923.1170               942.9080
 Red. masses --      1.8755                 1.6434                 1.8932
 Frc consts  --      0.9267                 0.8251                 0.9917
 IR Inten    --      1.9986                68.5889               133.8010

                     25                     26                     27
                      A                      A                      A
 Frequencies --    996.9968              1041.2761              1062.8749
 Red. masses --      1.7803                 1.5812                 2.5903
 Frc consts  --      1.0426                 1.0101                 1.7241
 IR Inten    --     23.2734                12.4104                14.7383

                     28                     29                     30
                      A                      A                      A
 Frequencies --   1073.3260              1077.3799              1100.0254
 Red. masses --      2.3839                 2.2853                 1.9535
 Frc consts  --      1.6181                 1.5629                 1.3928
 IR Inten    --     11.3015                48.7849                18.4583

                     31                     32                     33
                      A                      A                      A
 Frequencies --   1114.8756              1141.8637              1154.6160
 Red. masses --      2.0933                 1.5160                 1.9210
 Frc consts  --      1.5330                 1.1646                 1.5089
 IR Inten    --     18.4056                28.3147                36.9544

                     34                     35                     36
                      A                      A                      A
 Frequencies --   1227.5733              1246.5734              1281.4186
 Red. masses --      2.0104                 2.3703                 1.2296
 Frc consts  --      1.7850                 2.1701                 1.1896
 IR Inten    --     15.0259                38.4233                 4.9382

                     37                     38                     39
                      A                      A                      A
 Frequencies --   1318.3805              1329.4552              1351.4166
 Red. masses --      1.2110                 1.2286                 1.2069
 Frc consts  --      1.2402                 1.2794                 1.2987
 IR Inten    --      1.0425                17.5867                12.6657

                     40                     41                     42
                      A                      A                      A
 Frequencies --   1356.7901              1385.7827              1389.6178
 Red. masses --      1.1879                 1.2413                 1.1955
 Frc consts  --      1.2884                 1.4045                 1.3602
 IR Inten    --     20.5664                16.8142                 6.5911

                     43                     44                     45
                      A                      A                      A
 Frequencies --   1399.7121              1408.0862              1411.8980
 Red. masses --      1.3626                 1.4129                 1.2626
 Frc consts  --      1.5729                 1.6506                 1.4830
 IR Inten    --     35.5175                 7.3718                16.2471

                     46                     47                     48
                      A                      A                      A
 Frequencies --   1414.2296              1440.0045              1482.2199
 Red. masses --      1.2857                 1.4038                 1.0752
 Frc consts  --      1.5151                 1.7150                 1.3918
 IR Inten    --     24.9637                 3.0172                 2.5811

                     49                     50                     51
                      A                      A                      A
 Frequencies --   1490.8319              1493.5911              1501.1475
 Red. masses --      1.0580                 1.0599                 1.0483
 Frc consts  --      1.3855                 1.3931                 1.3918
 IR Inten    --      8.0812                 2.3378                 3.1935

                     52                     53                     54
                      A                      A                      A
 Frequencies --   1505.3940              1508.6414              1515.9452
 Red. masses --      1.0447                 1.0830                 1.0729
 Frc consts  --      1.3949                 1.4523                 1.4527
 IR Inten    --      1.5834                 2.7381                 0.8170

                     55                     56                     57
                      A                      A                      A
 Frequencies --   1520.5369              1531.3366              1660.3245
 Red. masses --      1.0772                 1.0925                 1.0871
 Frc consts  --      1.4674                 1.5094                 1.7657
 IR Inten    --     10.6772                 0.3569                31.5876

                     58                     59                     60
                      A                      A                      A
 Frequencies --   2929.9577              2936.3173              3025.9798
 Red. masses --      1.0729                 1.0729                 1.0608
 Frc consts  --      5.4265                 5.4505                 5.7226
 IR Inten    --     38.8367               231.7278                24.4328

                     61                     62                     63
                      A                      A                      A
 Frequencies --   3031.9124              3042.3838              3045.8727
 Red. masses --      1.0674                 1.0881                 1.0361
 Frc consts  --      5.7811                 5.9341                 5.6634
 IR Inten    --     83.4220                19.6484                35.5651

                     64                     65                     66
                      A                      A                      A
 Frequencies --   3046.1711              3053.2973              3059.8550
 Red. masses --      1.0373                 1.0845                 1.0752
 Frc consts  --      5.6713                 5.9569                 5.9312
 IR Inten    --     26.5575                35.7113                49.9805

                     67                     68                     69
                      A                      A                      A
 Frequencies --   3063.4932              3089.8564              3092.3679
 Red. masses --      1.0836                 1.1023                 1.1012
 Frc consts  --      5.9917                 6.2004                 6.2044
 IR Inten    --     94.2696                43.9431                72.9806

                     70                     71                     72
                      A                      A                      A
 Frequencies --   3112.5860              3117.2238              3119.3314
 Red. masses --      1.1013                 1.1023                 1.1028
 Frc consts  --      6.2862                 6.3107                 6.3221
 IR Inten    --     58.6531                55.7404                62.1352

                     73                     74                     75
                      A                      A                      A
 Frequencies --   3122.1342              3467.5169              3544.0449
 Red. masses --      1.1028                 1.0502                 1.0913
 Frc consts  --      6.3337                 7.4399                 8.0763
 IR Inten    --     80.2668                 1.9487                 0.3680

 - Thermochemistry -
 -------------------
 Temperature   298.150 Kelvin.  Pressure   1.00000 Atm.
 Atom     1 has atomic number  7 and mass  14.00307

 Molecular mass:   130.14700 amu.
 Principal axes and moments of inertia in atomic units:
                           1         2         3
     Eigenvalues --   769.737362313.395852611.80482
           X            0.99994   0.00757   0.00764
           Y           -0.00753   0.99995  -0.00601
           Z           -0.00769   0.00595   0.99995
 This molecule is an asymmetric top.
 Rotational symmetry number  1.
 Warning -- assumption of classical behavior for rotation
           may cause significant error
 Rotational temperatures (Kelvin)      0.11252     0.03744     0.03316
 Rotational constants (GHZ):           2.34462     0.78013     0.69099
 Zero-point vibrational energy     662969.5 (Joules/Mol)
                                  158.45352 (Kcal/Mol)
 Warning -- explicit consideration of  16 degrees of freedom as
           vibrations may cause significant error
 Vibrational temperatures:     48.35    86.44   119.28   133.42   197.67
          (Kelvin)            310.89   328.51   355.94   421.25   430.93
                              443.79   482.79   551.66   694.09   712.56
                              802.92  1048.71  1124.17  1127.88  1177.62
                             1233.07  1317.58  1328.16  1356.63  1434.46
                             1498.16  1529.24  1544.28  1550.11  1582.69
                             1604.06  1642.89  1661.23  1766.20  1793.54
                             1843.68  1896.86  1912.79  1944.39  1952.12
                             1993.83  1999.35  2013.87  2025.92  2031.41
                             2034.76  2071.85  2132.58  2144.97  2148.94
                             2159.82  2165.93  2170.60  2181.11  2187.71
                             2203.25  2388.84  4215.56  4224.71  4353.71
                             4362.25  4377.31  4382.33  4382.76  4393.01
                             4402.45  4407.68  4445.61  4449.23  4478.32
                             4484.99  4488.02  4492.05  4988.98  5099.09

 Zero-point correction=                           0.252512 (Hartree/Particle)
 Thermal correction to Energy=                    0.264336
 Thermal correction to Enthalpy=                  0.265280
 Thermal correction to Gibbs Free Energy=         0.214312
 Sum of electronic and zero-point Energies=           -386.849906
 Sum of electronic and thermal Energies=              -386.838081
 Sum of electronic and thermal Enthalpies=            -386.837137
 Sum of electronic and thermal Free Energies=         -386.888106

                     E (Thermal)             CV                S
                      KCal/Mol        Cal/Mol-Kelvin    Cal/Mol-Kelvin
 Total                  165.873             42.775            107.272
 Electronic               0.000              0.000              0.000
 Translational            0.889              2.981             40.503
 Rotational               0.889              2.981             29.921
 Vibrational            164.096             36.814             36.848
 Vibration     1          0.594              1.983              5.604
 Vibration     2          0.597              1.973              4.455
 Vibration     3          0.600              1.961              3.821
 Vibration     4          0.602              1.954              3.602
 Vibration     5          0.614              1.916              2.840
 Vibration     6          0.645              1.817              1.992
 Vibration     7          0.651              1.798              1.892
 Vibration     8          0.661              1.767              1.749
 Vibration     9          0.688              1.687              1.458
 Vibration    10          0.692              1.675              1.420
 Vibration    11          0.698              1.658              1.371
 Vibration    12          0.717              1.604              1.233
 Vibration    13          0.753              1.506              1.026
 Vibration    14          0.839              1.289              0.704
 Vibration    15          0.851              1.261              0.670
 Vibration    16          0.914              1.122              0.528

 Optimization completed.
    -- Stationary point found.
 Normal termination of Gaussian 16 at Thu Jul 11 18:49:37 2024.
 Gaussian 16:  EM64L-G16RevA.03 25-Dec-2016

 ----------------------------------------------------------------------
 # TD(NStates=10, Root=1) B3LYP/6-31G** SCRF=(Solvent=water) volume pop
 =NPA density=current Geom=AllCheck Guess=Read
 ----------------------------------------------------------------------

 Structure from the checkpoint file:  "QOHMWDJIBGVPIF-UHFFFAOYSA-N_conf_0_2.chk"
 ----------------------------------
 QOHMWDJIBGVPIF-UHFFFAOYSA-N_conf_0
 ----------------------------------
 Charge =  0 Multiplicity = 1

                         Standard orientation:
 ---------------------------------------------------------------------
 Center     Atomic      Atomic             Coordinates (Angstroms)
 Number     Number       Type             X           Y           Z
 ---------------------------------------------------------------------
      1          7           0        3.723496   -0.309015   -0.689200
      2          6           0        2.358464   -0.638783   -0.251401
      3          6           0        1.690811    0.390450    0.672173
      4          6           0        0.284358   -0.009769    1.137832
      5          7           0       -0.666798   -0.255901    0.045712
      6          6           0       -1.862860   -0.953934    0.534315
      7          6           0       -2.772989   -1.474417   -0.579180
      8          6           0       -0.957131    0.931434   -0.773145
      9          6           0       -1.681602    2.102658   -0.086095
     10          1           0        3.704160    0.587376   -1.174518
     11          1           0        4.302699   -0.147272    0.134255
     12          1           0        1.739102   -0.784306   -1.142528
     13          1           0        2.392888   -1.610510    0.259179
     14          1           0        1.673888    1.368216    0.173227
     15          1           0        2.310446    0.522929    1.569488
     16          1           0        0.366660   -0.947217    1.702249
     17          1           0       -0.084781    0.744142    1.857899
     18          1           0       -1.509976   -1.809892    1.121569
     19          1           0       -2.457789   -0.334106    1.231538
     20          1           0       -3.277865   -0.668790   -1.120356
     21          1           0       -2.200233   -2.064741   -1.301958
     22          1           0       -3.549862   -2.115903   -0.151263
     23          1           0       -0.009005    1.291635   -1.185366
     24          1           0       -1.546932    0.605129   -1.635626
     25          1           0       -1.106228    2.506781    0.752678
     26          1           0       -2.666383    1.810090    0.291905
     27          1           0       -1.831979    2.915016   -0.804951
 ---------------------------------------------------------------------

 SCF Done:  E(RB3LYP) =  -387.102417307     A.U. after    1 cycles

 Excitation energies and oscillator strengths:

 Excited State   1:      Singlet-A      6.5713 eV  188.68 nm  f=0.0124  <S**2>=0.000
      37 -> 38         0.69464
      37 -> 39        -0.11057
 This state for optimization and/or second-order correction.
 Total Energy, E(TD-HF/TD-DFT) =  -386.860928179
 Copying the excited state density for this state as the 1-particle RhoCI density.

 Excited State   2:      Singlet-A      7.1116 eV  174.34 nm  f=0.0159  <S**2>=0.000
      36 -> 38         0.14709
      36 -> 39         0.14275
      37 -> 38         0.10331
      37 -> 39         0.65891

 Excited State   3:      Singlet-A      7.4795 eV  165.77 nm  f=0.0107  <S**2>=0.000
      36 -> 38         0.46871
      36 -> 39         0.45952
      37 -> 39        -0.18024
      37 -> 41         0.12782
      37 -> 42         0.10947

 Excited State   4:      Singlet-A      7.5448 eV  164.33 nm  f=0.0302  <S**2>=0.000
      37 -> 40         0.68860
      37 -> 41        -0.12306

 Excited State   5:      Singlet-A      7.6419 eV  162.24 nm  f=0.0424  <S**2>=0.000
      36 -> 38        -0.10535
      37 -> 40         0.12843
      37 -> 41         0.66939
      37 -> 42        -0.10580

 Excited State   6:      Singlet-A      7.9674 eV  155.61 nm  f=0.0042  <S**2>=0.000
      36 -> 38         0.46122
      36 -> 39        -0.39640
      36 -> 40        -0.10599
      37 -> 42        -0.31666

 Excited State   7:      Singlet-A      8.0647 eV  153.74 nm  f=0.0256  <S**2>=0.000
      36 -> 38         0.15057
      36 -> 39        -0.27266
      37 -> 42         0.59846

 Excited State   8:      Singlet-A      8.3296 eV  148.85 nm  f=0.0249  <S**2>=0.000
      37 -> 43         0.66952
      37 -> 47         0.12439

 Excited State   9:      Singlet-A      8.5394 eV  145.19 nm  f=0.0115  <S**2>=0.000
      36 -> 40         0.20594
      36 -> 41        -0.21589
      37 -> 44         0.56645
      37 -> 45         0.23665

 Excited State  10:      Singlet-A      8.5705 eV  144.66 nm  f=0.0434  <S**2>=0.000
      36 -> 40        -0.38375
      36 -> 41         0.38483
      36 -> 42         0.17383
      36 -> 43        -0.15526
      37 -> 44         0.30967
      37 -> 47         0.13369

 The electronic state is 1-A.
 Alpha  occ. eigenvalues --  -14.31635 -14.30836 -10.20146 -10.20025 -10.19991
 Alpha  occ. eigenvalues --  -10.19799 -10.17391 -10.17147 -10.16901  -0.90990
 Alpha  occ. eigenvalues --   -0.87190  -0.76188  -0.74825  -0.71055  -0.64858
 Alpha  occ. eigenvalues --   -0.62754  -0.58687  -0.54437  -0.49530  -0.47614
 Alpha  occ. eigenvalues --   -0.47430  -0.44084  -0.42776  -0.41205  -0.40682
 Alpha  occ. eigenvalues --   -0.39844  -0.38174  -0.37225  -0.36748  -0.36277
 Alpha  occ. eigenvalues --   -0.34562  -0.34015  -0.33220  -0.32241  -0.31931
 Alpha  occ. eigenvalues --   -0.23624  -0.20224
 Alpha virt. eigenvalues --    0.07639   0.09084   0.11185   0.11600   0.12802
 Alpha virt. eigenvalues --    0.14187   0.15114   0.15610   0.16692   0.16884
 Alpha virt. eigenvalues --    0.17694   0.17921   0.18684   0.19415   0.19509

 Mulliken charges:
               1
     1  N   -0.621617
     2  C   -0.037070
     3  C   -0.158864
     4  C   -0.023744
     5  N   -0.230736
     6  C   -0.011177
     7  C   -0.301203
     8  C    0.001983
     9  C   -0.243527
    10  H    0.235744
    11  H    0.236819
    12  H    0.085789
    13  H    0.079788
    14  H    0.036138
    15  H    0.061402
    16  H    0.056200
    17  H    0.115615
    18  H    0.054760
    19  H    0.119692
    20  H    0.069889
    21  H    0.107161
    22  H    0.089694
    23  H    0.040492
    24  H    0.076337
    25  H    0.043465
    26  H    0.052066
    27  H    0.064903
 Sum of Mulliken charges =  -0.00000

 Dipole moment (field-independent basis, Debye):
    X=             -1.2398    Y=              0.1942    Z=              1.4383  Tot=              1.9088
 Quadrupole moment (field-independent basis, Debye-Ang):
   XX=            -67.7342   YY=            -65.6410   ZZ=            -61.9844
   XY=              6.6777   XZ=              3.3236   YZ=             -1.6059

 Summary of Natural Population Analysis:

                                       Natural Population
                Natural  -----------------------------------------------
    Atom  No    Charge         Core      Valence    Rydberg      Total
 -----------------------------------------------------------------------
      N    1   -0.90887      1.99970     5.89393    0.01524     7.90887
      C    2   -0.27095      1.99935     4.25430    0.01730     6.27095
      C    3   -0.50396      1.99932     4.49167    0.01298     6.50396
      C    4   -0.32138      1.99927     4.30330    0.01881     6.32138
      N    5   -0.04547      1.99933     5.03761    0.00853     7.04547
      C    6   -0.31942      1.99931     4.30254    0.01757     6.31942
      C    7   -0.71167      1.99945     4.70293    0.00928     6.71167
      C    8   -0.32227      1.99931     4.30416    0.01881     6.32227
      C    9   -0.70092      1.99940     4.69095    0.01056     6.70092
      H   10    0.37308      0.00000     0.61826    0.00866     0.62692
      H   11    0.37400      0.00000     0.61782    0.00818     0.62600
      H   12    0.20986      0.00000     0.78081    0.00933     0.79014
      H   13    0.21156      0.00000     0.77700    0.01144     0.78844
      H   14    0.18830      0.00000     0.78319    0.02851     0.81170
      H   15    0.21382      0.00000     0.77081    0.01537     0.78618
      H   16    0.19481      0.00000     0.77648    0.02871     0.80519
      H   17    0.24874      0.00000     0.72573    0.02553     0.75126
      H   18    0.19289      0.00000     0.77828    0.02883     0.80711
      H   19    0.24587      0.00000     0.73041    0.02372     0.75413
      H   20    0.20250      0.00000     0.77727    0.02022     0.79750
      H   21    0.23336      0.00000     0.75975    0.00689     0.76664
      H   22    0.22685      0.00000     0.76328    0.00988     0.77315
      H   23    0.18528      0.00000     0.78068    0.03404     0.81472
      H   24    0.21523      0.00000     0.76230    0.02247     0.78477
      H   25    0.18552      0.00000     0.78760    0.02688     0.81448
      H   26    0.19279      0.00000     0.78216    0.02505     0.80721
      H   27    0.21047      0.00000     0.77187    0.01766     0.78953
 =======================================================================
   * Total *   -0.00000     17.99444    55.52510    0.48047    74.00000

 1\1\GINC-CN36\SP\RB3LYP TD-FC\6-31G(d,p)\C7H18N2\QDUEZ\11-Jul-2024\0\\
 # TD(NStates=10, Root=1) B3LYP/6-31G** SCRF=(Solvent=water) volume pop
 =NPA density=current Geom=AllCheck Guess=Read\\QOHMWDJIBGVPIF-UHFFFAOY
 SA-N_conf_0\\0,1\N,0,3.8345382637,0.3978309896,-0.8720917376\C,0,2.591
 424419,-0.1200246198,-0.2802981832\C,0,1.6786480103,0.9294747958,0.370
 4408343\C,0,0.4128055147,0.3437141891,1.0104792769\N,0,-0.4360430609,-
 0.4176547355,0.0843158183\C,0,-1.4238705255,-1.2228818293,0.8139423105
 \C,0,-2.164119642,-2.2353028338,-0.061353719\C,0,-1.0065668854,0.39008

 Normal termination of Gaussian 16 at Thu Jul 11 19:11:38 2024.
