 Gaussian 16, Revision A.03,

 -------------------------------------------------------
 # opt=CalcFc B3LYP/6-31G** SCRF=(Solvent=water) scf=xqc
 -------------------------------------------------------

 ----------------------------------
 QOHMWDJIBGVPIF-UHFFFAOYSA-N_conf_3
 ----------------------------------
 Symbolic Z-matrix:
 Charge =  0 Multiplicity = 1

 SCF Done:  E(RB3LYP) =  -387.100968929     A.U. after   11 cycles
 SCF Done:  E(RB3LYP) =  -387.103734607     A.U. after    9 cycles
 SCF Done:  E(RB3LYP) =  -387.103911825     A.U. after    9 cycles
 SCF Done:  E(RB3LYP) =  -387.103925450     A.U. after    9 cycles
 SCF Done:  E(RB3LYP) =  -387.103926840     A.U. after    7 cycles
 Optimization completed.
    -- Stationary point found.
 Normal termination of Gaussian 16 at Thu Jul 11 18:41:02 2024.

 ----------------------------------------------------------------------
 # freq B3LYP/6-31G** SCRF=(Solvent=water) volume NMR pop=NPA density=c
 urrent Geom=AllCheck Guess=Read
 ----------------------------------------------------------------------

 Structure from the checkpoint file:  "QOHMWDJIBGVPIF-UHFFFAOYSA-N_conf_3_1.chk"
 ----------------------------------
 QOHMWDJIBGVPIF-UHFFFAOYSA-N_conf_3
 ----------------------------------
 Charge =  0 Multiplicity = 1

 SCF Done:  E(RB3LYP) =  -387.103926840     A.U. after    1 cycles

      1  N    Isotropic =   231.7042   Anisotropy =    26.1743

      2  C    Isotropic =   148.0270   Anisotropy =    39.6563

      3  C    Isotropic =   155.1586   Anisotropy =    34.6626

      4  C    Isotropic =   139.8749   Anisotropy =    43.8578

      5  N    Isotropic =   204.7047   Anisotropy =    29.7356

      6  C    Isotropic =   143.6534   Anisotropy =    49.0046

      7  C    Isotropic =   176.5534   Anisotropy =    22.9888

      8  C    Isotropic =   143.3242   Anisotropy =    48.9532

      9  C    Isotropic =   176.4912   Anisotropy =    23.6435

     10  H    Isotropic =    31.5151   Anisotropy =    12.5795

     11  H    Isotropic =    31.4383   Anisotropy =    12.9931

     12  H    Isotropic =    29.3733   Anisotropy =     5.4030

     13  H    Isotropic =    28.7533   Anisotropy =     6.9532

     14  H    Isotropic =    30.1606   Anisotropy =     3.6545

     15  H    Isotropic =    30.6156   Anisotropy =     7.2780

     16  H    Isotropic =    29.6679   Anisotropy =     7.3509

     17  H    Isotropic =    29.2518   Anisotropy =     5.2313

     18  H    Isotropic =    29.7817   Anisotropy =     7.7372

     19  H    Isotropic =    29.1352   Anisotropy =     6.2800

     20  H    Isotropic =    30.5589   Anisotropy =     6.5363

     21  H    Isotropic =    30.8762   Anisotropy =    10.9280

     22  H    Isotropic =    30.9086   Anisotropy =     7.8609

     23  H    Isotropic =    29.1167   Anisotropy =     5.6767

     24  H    Isotropic =    29.7592   Anisotropy =     7.6102

     25  H    Isotropic =    30.8463   Anisotropy =     7.9069

     26  H    Isotropic =    30.5066   Anisotropy =     7.2643

     27  H    Isotropic =    30.8450   Anisotropy =    10.7877

  Exact polarizability: 122.865  -1.145 118.704  -1.996  -1.353 108.849
 Approx polarizability: 125.630  -0.823 124.425  -1.830  -1.862 117.236

                      1                      2                      3
                      A                      A                      A
 Frequencies --     44.4931                67.1446                89.0107
 Red. masses --      3.1744                 2.5202                 1.8928
 Frc consts  --      0.0037                 0.0067                 0.0088
 IR Inten    --      0.9857                 0.1829                 1.1015

                      4                      5                      6
                      A                      A                      A
 Frequencies --     91.9027               113.8226               210.3598
 Red. masses --      1.8811                 2.0860                 1.2679
 Frc consts  --      0.0094                 0.0159                 0.0331
 IR Inten    --      2.1820                 0.0161                 1.5017

                      7                      8                      9
                      A                      A                      A
 Frequencies --    218.3877               234.1947               287.5938
 Red. masses --      1.2623                 3.0306                 1.5920
 Frc consts  --      0.0355                 0.0979                 0.0776
 IR Inten    --      0.6541                 2.4741                32.4572

                     10                     11                     12
                      A                      A                      A
 Frequencies --    305.2972               309.2733               328.0981
 Red. masses --      1.4048                 1.7323                 2.0955
 Frc consts  --      0.0771                 0.0976                 0.1329
 IR Inten    --     33.2511                 9.2508                 4.6599

                     13                     14                     15
                      A                      A                      A
 Frequencies --    376.2524               454.1498               477.3133
 Red. masses --      2.5948                 2.6090                 2.5187
 Frc consts  --      0.2164                 0.3170                 0.3381
 IR Inten    --      6.7259                 3.9297                 3.3571

                     16                     17                     18
                      A                      A                      A
 Frequencies --    554.9695               732.9688               785.7807
 Red. masses --      2.6266                 1.6777                 1.3420
 Frc consts  --      0.4766                 0.5310                 0.4882
 IR Inten    --      2.1303                14.4967                14.2509

                     19                     20                     21
                      A                      A                      A
 Frequencies --    803.6256               815.7977               850.2765
 Red. masses --      1.1542                 1.2863                 1.9581
 Frc consts  --      0.4392                 0.5044                 0.8341
 IR Inten    --      5.7302                 3.0222                39.7598

                     22                     23                     24
                      A                      A                      A
 Frequencies --    920.1634               934.6539               942.1993
 Red. masses --      1.6902                 1.7174                 1.7758
 Frc consts  --      0.8432                 0.8839                 0.9288
 IR Inten    --     86.5859                 5.3306               122.9597

                     25                     26                     27
                      A                      A                      A
 Frequencies --   1011.4577              1038.6641              1069.4802
 Red. masses --      1.5762                 2.2240                 2.6580
 Frc consts  --      0.9501                 1.4136                 1.7912
 IR Inten    --     14.7677                 7.4183                40.9907

                     28                     29                     30
                      A                      A                      A
 Frequencies --   1084.6135              1086.5433              1101.4107
 Red. masses --      2.5514                 2.2004                 1.8521
 Frc consts  --      1.7684                 1.5305                 1.3237
 IR Inten    --     45.3078                23.9930                15.3685

                     31                     32                     33
                      A                      A                      A
 Frequencies --   1104.5508              1131.5427              1160.7182
 Red. masses --      1.9801                 1.6118                 1.6947
 Frc consts  --      1.4233                 1.2159                 1.3452
 IR Inten    --      4.4262                36.2482                20.1303

                     34                     35                     36
                      A                      A                      A
 Frequencies --   1228.0079              1237.5016              1297.3921
 Red. masses --      2.1344                 2.1133                 1.3565
 Frc consts  --      1.8964                 1.9068                 1.3453
 IR Inten    --     36.9361                23.4717                 8.9981

                     37                     38                     39
                      A                      A                      A
 Frequencies --   1316.3943              1328.6529              1335.9664
 Red. masses --      1.2153                 1.1475                 1.1874
 Frc consts  --      1.2408                 1.1935                 1.2487
 IR Inten    --      6.5876                17.2585                23.1737

                     40                     41                     42
                      A                      A                      A
 Frequencies --   1347.1019              1389.4813              1400.1183
 Red. masses --      1.2277                 1.1914                 1.2915
 Frc consts  --      1.3127                 1.3553                 1.4917
 IR Inten    --     26.1799                 5.1441                 9.2060

                     43                     44                     45
                      A                      A                      A
 Frequencies --   1402.6652              1409.2847              1419.6260
 Red. masses --      1.3502                 1.3236                 1.2914
 Frc consts  --      1.5651                 1.5488                 1.5334
 IR Inten    --      7.1252                 7.3210                14.5082

                     46                     47                     48
                      A                      A                      A
 Frequencies --   1426.1414              1428.3342              1484.5211
 Red. masses --      1.3299                 1.4004                 1.0863
 Frc consts  --      1.5936                 1.6833                 1.4105
 IR Inten    --     22.9611                13.0840                 1.4867

                     49                     50                     51
                      A                      A                      A
 Frequencies --   1490.9921              1493.0295              1496.7870
 Red. masses --      1.0544                 1.0545                 1.0511
 Frc consts  --      1.3811                 1.3850                 1.3875
 IR Inten    --      2.3520                 1.7850                 0.1676

                     52                     53                     54
                      A                      A                      A
 Frequencies --   1501.3301              1509.4199              1510.4779
 Red. masses --      1.0438                 1.0764                 1.0870
 Frc consts  --      1.3862                 1.4449                 1.4612
 IR Inten    --      2.2455                 5.6481                 2.7557

                     55                     56                     57
                      A                      A                      A
 Frequencies --   1518.9626              1523.8482              1660.5070
 Red. masses --      1.0810                 1.0920                 1.0871
 Frc consts  --      1.4695                 1.4940                 1.7661
 IR Inten    --      4.2417                 7.2334                31.1468

                     58                     59                     60
                      A                      A                      A
 Frequencies --   2926.4414              2927.2942              2934.1596
 Red. masses --      1.0740                 1.0740                 1.0731
 Frc consts  --      5.4192                 5.4223                 5.4434
 IR Inten    --     28.1040                25.9463               367.0968

                     61                     62                     63
                      A                      A                      A
 Frequencies --   3023.2601              3030.3825              3044.1507
 Red. masses --      1.0602                 1.0678                 1.0359
 Frc consts  --      5.7096                 5.7774                 5.6559
 IR Inten    --     34.2420                81.1908                32.6993

                     64                     65                     66
                      A                      A                      A
 Frequencies --   3044.6929              3055.3883              3079.8759
 Red. masses --      1.0358                 1.0978                 1.0881
 Frc consts  --      5.6576                 6.0381                 6.0809
 IR Inten    --     29.2277                24.4944                57.6520

                     67                     68                     69
                      A                      A                      A
 Frequencies --   3085.6066              3087.1392              3093.5650
 Red. masses --      1.0888                 1.0864                 1.1001
 Frc consts  --      6.1080                 6.1004                 6.2028
 IR Inten    --     37.4321                14.8837                84.8931

                     70                     71                     72
                      A                      A                      A
 Frequencies --   3114.0449              3114.9245              3119.4845
 Red. masses --      1.1013                 1.1010                 1.1032
 Frc consts  --      6.2920                 6.2943                 6.3253
 IR Inten    --     44.9102                75.8125                79.2487

                     73                     74                     75
                      A                      A                      A
 Frequencies --   3120.7939              3467.7940              3544.4122
 Red. masses --      1.1024                 1.0502                 1.0914
 Frc consts  --      6.3257                 7.4410                 8.0784
 IR Inten    --     78.1056                 1.9423                 0.3455

 - Thermochemistry -
 -------------------
 Temperature   298.150 Kelvin.  Pressure   1.00000 Atm.
 Atom     1 has atomic number  7 and mass  14.00307

 Molecular mass:   130.14700 amu.
 Principal axes and moments of inertia in atomic units:
                           1         2         3
     Eigenvalues --   978.827222049.496422485.98557
           X            0.99991  -0.00271  -0.01311
           Y            0.00270   1.00000  -0.00098
           Z            0.01311   0.00094   0.99991
 This molecule is an asymmetric top.
 Rotational symmetry number  1.
 Warning -- assumption of classical behavior for rotation
           may cause significant error
 Rotational temperatures (Kelvin)      0.08849     0.04226     0.03484
 Rotational constants (GHZ):           1.84378     0.88058     0.72597
 Zero-point vibrational energy     662172.9 (Joules/Mol)
                                  158.26312 (Kcal/Mol)
 Warning -- explicit consideration of  16 degrees of freedom as
           vibrations may cause significant error
 Vibrational temperatures:     64.02    96.61   128.07   132.23   163.77
          (Kelvin)            302.66   314.21   336.95   413.78   439.25
                              444.98   472.06   541.34   653.42   686.75
                              798.48  1054.58  1130.56  1156.24  1173.75
                             1223.36  1323.91  1344.76  1355.61  1455.26
                             1494.41  1538.74  1560.52  1563.29  1584.68
                             1589.20  1628.04  1670.01  1766.83  1780.49
                             1866.66  1894.00  1911.64  1922.16  1938.18
                             1999.15  2014.46  2018.12  2027.65  2042.53
                             2051.90  2055.05  2135.89  2145.21  2148.14
                             2153.54  2160.08  2171.72  2173.24  2185.45
                             2192.48  2389.10  4210.50  4211.72  4221.60
                             4349.80  4360.04  4379.85  4380.63  4396.02
                             4431.25  4439.50  4441.70  4450.95  4480.42
                             4481.68  4488.24  4490.13  4989.38  5099.62

 Zero-point correction=                           0.252208 (Hartree/Particle)
 Thermal correction to Energy=                    0.264111
 Thermal correction to Enthalpy=                  0.265055
 Thermal correction to Gibbs Free Energy=         0.214125
 Sum of electronic and zero-point Energies=           -386.851719
 Sum of electronic and thermal Energies=              -386.839816
 Sum of electronic and thermal Enthalpies=            -386.838872
 Sum of electronic and thermal Free Energies=         -386.889802

                     E (Thermal)             CV                S
                      KCal/Mol        Cal/Mol-Kelvin    Cal/Mol-Kelvin
 Total                  165.732             42.893            107.192
 Electronic               0.000              0.000              0.000
 Translational            0.889              2.981             40.503
 Rotational               0.889              2.981             29.990
 Vibrational            163.955             36.932             36.698
 Vibration     1          0.595              1.980              5.048
 Vibration     2          0.598              1.970              4.235
 Vibration     3          0.602              1.957              3.682
 Vibration     4          0.602              1.955              3.619
 Vibration     5          0.607              1.938              3.203
 Vibration     6          0.643              1.825              2.041
 Vibration     7          0.646              1.813              1.972
 Vibration     8          0.654              1.789              1.847
 Vibration     9          0.685              1.697              1.488
 Vibration    10          0.696              1.664              1.388
 Vibration    11          0.699              1.656              1.366
 Vibration    12          0.711              1.619              1.269
 Vibration    13          0.747              1.521              1.054
 Vibration    14          0.813              1.352              0.783
 Vibration    15          0.834              1.300              0.717
 Vibration    16          0.910              1.129              0.534

 Optimization completed.
    -- Stationary point found.
 Normal termination of Gaussian 16 at Thu Jul 11 19:06:30 2024.
 Gaussian 16:  EM64L-G16RevA.03 25-Dec-2016

 ----------------------------------------------------------------------
 # TD(NStates=10, Root=1) B3LYP/6-31G** SCRF=(Solvent=water) volume pop
 =NPA density=current Geom=AllCheck Guess=Read
 ----------------------------------------------------------------------

 Structure from the checkpoint file:  "QOHMWDJIBGVPIF-UHFFFAOYSA-N_conf_3_2.chk"
 ----------------------------------
 QOHMWDJIBGVPIF-UHFFFAOYSA-N_conf_3
 ----------------------------------
 Charge =  0 Multiplicity = 1

                         Standard orientation:
 ---------------------------------------------------------------------
 Center     Atomic      Atomic             Coordinates (Angstroms)
 Number     Number       Type             X           Y           Z
 ---------------------------------------------------------------------
      1          7           0       -3.541794    0.181608   -0.773875
      2          6           0       -2.205323   -0.337236   -0.446041
      3          6           0       -1.597929    0.168381    0.870604
      4          6           0       -0.198990   -0.393290    1.159403
      5          7           0        0.818468    0.017719    0.177778
      6          6           0        1.933963   -0.940551    0.123396
      7          6           0        1.610949   -2.198519   -0.683969
      8          6           0        1.294220    1.385596    0.437932
      9          6           0        1.879858    2.066197   -0.800114
     10          1           0       -3.497035    1.199242   -0.815768
     11          1           0       -4.172680   -0.020437    0.001220
     12          1           0       -2.267163   -1.433429   -0.417856
     13          1           0       -1.528236   -0.087252   -1.269297
     14          1           0       -1.576144    1.266321    0.856276
     15          1           0       -2.256546   -0.111432    1.704314
     16          1           0        0.107995   -0.119386    2.186583
     17          1           0       -0.262392   -1.486360    1.144608
     18          1           0        2.267504   -1.219305    1.141313
     19          1           0        2.785634   -0.441110   -0.347550
     20          1           0        0.777023   -2.763842   -0.256379
     21          1           0        2.479865   -2.864562   -0.709682
     22          1           0        1.347023   -1.935546   -1.713041
     23          1           0        0.442904    1.978939    0.784313
     24          1           0        2.032184    1.399274    1.262865
     25          1           0        1.134109    2.113042   -1.599776
     26          1           0        2.757090    1.539382   -1.188534
     27          1           0        2.191658    3.087704   -0.558197
 ---------------------------------------------------------------------

 SCF Done:  E(RB3LYP) =  -387.103926840     A.U. after    1 cycles

 Excitation energies and oscillator strengths:

 Excited State   1:      Singlet-A      7.1136 eV  174.29 nm  f=0.0038  <S**2>=0.000
      37 -> 38         0.63868
      37 -> 39        -0.25789
 This state for optimization and/or second-order correction.
 Total Energy, E(TD-HF/TD-DFT) =  -386.842506964
 Copying the excited state density for this state as the 1-particle RhoCI density.

 Excited State   2:      Singlet-A      7.2378 eV  171.30 nm  f=0.0478  <S**2>=0.000
      36 -> 38         0.19230
      37 -> 38         0.21389
      37 -> 39         0.63236

 Excited State   3:      Singlet-A      7.4626 eV  166.14 nm  f=0.0353  <S**2>=0.000
      36 -> 38        -0.28149
      36 -> 39        -0.11042
      37 -> 40         0.63147

 Excited State   4:      Singlet-A      7.6001 eV  163.14 nm  f=0.0379  <S**2>=0.000
      36 -> 38         0.46142
      36 -> 39         0.22923
      37 -> 38        -0.15228
      37 -> 39        -0.13280
      37 -> 40         0.28485
      37 -> 41         0.28893
      37 -> 42         0.11557

 Excited State   5:      Singlet-A      7.7322 eV  160.35 nm  f=0.0844  <S**2>=0.000
      36 -> 38        -0.22540
      37 -> 38         0.11617
      37 -> 41         0.63286
      37 -> 42        -0.11324

 Excited State   6:      Singlet-A      8.1190 eV  152.71 nm  f=0.1089  <S**2>=0.000
      36 -> 38        -0.18470
      36 -> 39         0.13640
      37 -> 42         0.64882

 Excited State   7:      Singlet-A      8.2078 eV  151.06 nm  f=0.0211  <S**2>=0.000
      36 -> 38        -0.22842
      36 -> 39         0.58265
      36 -> 40         0.17265
      36 -> 41         0.12550
      37 -> 42        -0.17669
      37 -> 43        -0.10952

 Excited State   8:      Singlet-A      8.4159 eV  147.32 nm  f=0.0826  <S**2>=0.000
      36 -> 38         0.12720
      36 -> 39        -0.11295
      36 -> 40         0.53421
      36 -> 41        -0.12849
      36 -> 42        -0.14598
      37 -> 43        -0.33692

 Excited State   9:      Singlet-A      8.4998 eV  145.87 nm  f=0.0447  <S**2>=0.000
      36 -> 40         0.30618
      36 -> 43        -0.10012
      37 -> 43         0.58017
      37 -> 45         0.15882

 Excited State  10:      Singlet-A      8.6447 eV  143.42 nm  f=0.0702  <S**2>=0.000
      36 -> 41        -0.19103
      37 -> 44         0.66207

 The electronic state is 1-A.
 Alpha  occ. eigenvalues --  -14.31787 -14.30842 -10.20181 -10.20177 -10.20086
 Alpha  occ. eigenvalues --  -10.19756 -10.17362 -10.17099 -10.17086  -0.91206
 Alpha  occ. eigenvalues --   -0.87195  -0.76072  -0.75416  -0.70955  -0.64583
 Alpha  occ. eigenvalues --   -0.61709  -0.59473  -0.55331  -0.49154  -0.46901
 Alpha  occ. eigenvalues --   -0.46613  -0.45250  -0.43249  -0.42851  -0.39876
 Alpha  occ. eigenvalues --   -0.39425  -0.38492  -0.37525  -0.36261  -0.35557
 Alpha  occ. eigenvalues --   -0.34834  -0.34266  -0.33495  -0.31952  -0.31843
 Alpha  occ. eigenvalues --   -0.23675  -0.20743
 Alpha virt. eigenvalues --    0.08687   0.09316   0.10355   0.11309   0.12713
 Alpha virt. eigenvalues --    0.13889   0.14996   0.15588   0.15826   0.17164
 Alpha virt. eigenvalues --    0.17597   0.17864   0.18109   0.19201   0.19372

 Mulliken charges:
               1
     1  N   -0.548992
     2  C   -0.013132
     3  C   -0.126965
     4  C   -0.052796
     5  N   -0.234859
     6  C   -0.050774
     7  C   -0.333180
     8  C    0.003051
     9  C   -0.303335
    10  H    0.170376
    11  H    0.176325
    12  H    0.055246
    13  H    0.037859
    14  H   -0.007120
    15  H    0.030204
    16  H    0.150875
    17  H    0.089071
    18  H    0.152132
    19  H    0.095445
    20  H    0.110778
    21  H    0.120847
    22  H    0.117926
    23  H    0.014915
    24  H    0.104989
    25  H    0.066343
    26  H    0.083684
    27  H    0.091087
 Sum of Mulliken charges =  -0.00000

 Dipole moment (field-independent basis, Debye):
    X=              4.7119    Y=             -1.4657    Z=              2.7704  Tot=              5.6591
 Quadrupole moment (field-independent basis, Debye-Ang):
   XX=            -67.9415   YY=            -62.0111   ZZ=            -62.7548
   XY=             -3.4091   XZ=             -3.4249   YZ=             -0.5233

 Summary of Natural Population Analysis:

                                       Natural Population
                Natural  -----------------------------------------------
    Atom  No    Charge         Core      Valence    Rydberg      Total
 -----------------------------------------------------------------------
      N    1   -0.85852      1.99966     5.84192    0.01694     7.85852
      C    2   -0.28233      1.99936     4.26255    0.02042     6.28233
      C    3   -0.50185      1.99931     4.48625    0.01630     6.50185
      C    4   -0.30798      1.99927     4.29207    0.01665     6.30798
      N    5   -0.11163      1.99931     5.10097    0.01135     7.11163
      C    6   -0.31549      1.99931     4.29915    0.01703     6.31549
      C    7   -0.71014      1.99945     4.70044    0.01026     6.71014
      C    8   -0.31868      1.99932     4.30197    0.01739     6.31868
      C    9   -0.71362      1.99945     4.70205    0.01213     6.71362
      H   10    0.32333      0.00000     0.64636    0.03032     0.67667
      H   11    0.32885      0.00000     0.64284    0.02830     0.67115
      H   12    0.19734      0.00000     0.78378    0.01888     0.80266
      H   13    0.17820      0.00000     0.79468    0.02711     0.82180
      H   14    0.15611      0.00000     0.80043    0.04346     0.84389
      H   15    0.19217      0.00000     0.78225    0.02557     0.80783
      H   16    0.27671      0.00000     0.71011    0.01318     0.72329
      H   17    0.21957      0.00000     0.76081    0.01962     0.78043
      H   18    0.26785      0.00000     0.72248    0.00967     0.73215
      H   19    0.22426      0.00000     0.75650    0.01924     0.77574
      H   20    0.22775      0.00000     0.76507    0.00718     0.77225
      H   21    0.24693      0.00000     0.74944    0.00362     0.75307
      H   22    0.23589      0.00000     0.75806    0.00606     0.76411
      H   23    0.16504      0.00000     0.79353    0.04143     0.83496
      H   24    0.24014      0.00000     0.73765    0.02221     0.75986
      H   25    0.20079      0.00000     0.77768    0.02153     0.79921
      H   26    0.21227      0.00000     0.77491    0.01282     0.78773
      H   27    0.22705      0.00000     0.76319    0.00976     0.77295
 =======================================================================
   * Total *   -0.00000     17.99443    55.50713    0.49844    74.00000

 1\1\GINC-CN13\SP\RB3LYP TD-FC\6-31G(d,p)\C7H18N2\QDUEZ\11-Jul-2024\0\\
 # TD(NStates=10, Root=1) B3LYP/6-31G** SCRF=(Solvent=water) volume pop
 =NPA density=current Geom=AllCheck Guess=Read\\QOHMWDJIBGVPIF-UHFFFAOY
 SA-N_conf_3\\0,1\N,0,3.6279583097,0.3521397007,0.7990859388\C,0,2.2789
 98977,-0.2114011648,0.6392102609\C,0,1.7261057275,-0.222409135,-0.7933
 807456\C,0,0.3119737076,-0.808950589,-0.9034207291\N,0,-0.7107414969,-
 0.0270431667,-0.1889906646\C,0,-1.8670773561,-0.8595656749,0.178921951
 1\C,0,-1.6178416578,-1.728560354,1.4123684036\C,0,-1.1212298125,1.1549

 Normal termination of Gaussian 16 at Thu Jul 11 19:36:42 2024.
