 Gaussian 16, Revision A.03,

 -------------------------------------------------------
 # opt=CalcFc B3LYP/6-31G** SCRF=(Solvent=water) scf=xqc
 -------------------------------------------------------

 ----------------------------------
 QOHMWDJIBGVPIF-UHFFFAOYSA-N_conf_2
 ----------------------------------
 Symbolic Z-matrix:
 Charge =  0 Multiplicity = 1

 SCF Done:  E(RB3LYP) =  -387.096604662     A.U. after   11 cycles
 SCF Done:  E(RB3LYP) =  -387.099111435     A.U. after    9 cycles
 SCF Done:  E(RB3LYP) =  -387.099243130     A.U. after    9 cycles
 SCF Done:  E(RB3LYP) =  -387.099257965     A.U. after    8 cycles
 SCF Done:  E(RB3LYP) =  -387.099261397     A.U. after    7 cycles
 SCF Done:  E(RB3LYP) =  -387.099261710     A.U. after    7 cycles
 SCF Done:  E(RB3LYP) =  -387.099261716     A.U. after    5 cycles
 Optimization completed.
    -- Stationary point found.
 Normal termination of Gaussian 16 at Thu Jul 11 18:45:12 2024.

 ----------------------------------------------------------------------
 # freq B3LYP/6-31G** SCRF=(Solvent=water) volume NMR pop=NPA density=c
 urrent Geom=AllCheck Guess=Read
 ----------------------------------------------------------------------

 Structure from the checkpoint file:  "QOHMWDJIBGVPIF-UHFFFAOYSA-N_conf_2_1.chk"
 ----------------------------------
 QOHMWDJIBGVPIF-UHFFFAOYSA-N_conf_2
 ----------------------------------
 Charge =  0 Multiplicity = 1

 SCF Done:  E(RB3LYP) =  -387.099261716     A.U. after    1 cycles

      1  N    Isotropic =   238.2003   Anisotropy =    44.9267

      2  C    Isotropic =   149.3499   Anisotropy =    30.9015

      3  C    Isotropic =   158.4682   Anisotropy =    31.4652

      4  C    Isotropic =   134.5121   Anisotropy =    63.5874

      5  N    Isotropic =   219.9907   Anisotropy =    50.0395

      6  C    Isotropic =   148.4077   Anisotropy =    42.1887

      7  C    Isotropic =   177.5762   Anisotropy =    22.0901

      8  C    Isotropic =   146.0736   Anisotropy =    46.7928

      9  C    Isotropic =   179.3707   Anisotropy =    16.4202

     10  H    Isotropic =    30.9508   Anisotropy =    11.5549

     11  H    Isotropic =    31.9790   Anisotropy =    13.0072

     12  H    Isotropic =    29.4504   Anisotropy =     7.1648

     13  H    Isotropic =    29.0363   Anisotropy =     8.4950

     14  H    Isotropic =    30.1709   Anisotropy =     3.4484

     15  H    Isotropic =    30.2684   Anisotropy =     7.0968

     16  H    Isotropic =    28.7329   Anisotropy =     7.6024

     17  H    Isotropic =    29.1641   Anisotropy =     6.2036

     18  H    Isotropic =    29.4784   Anisotropy =     6.3417

     19  H    Isotropic =    28.4676   Anisotropy =     5.6685

     20  H    Isotropic =    30.4246   Anisotropy =     7.0277

     21  H    Isotropic =    30.9627   Anisotropy =     9.0322

     22  H    Isotropic =    30.8268   Anisotropy =    10.3557

     23  H    Isotropic =    28.4880   Anisotropy =     7.6706

     24  H    Isotropic =    29.1425   Anisotropy =     7.2049

     25  H    Isotropic =    30.9431   Anisotropy =     7.4507

     26  H    Isotropic =    30.2057   Anisotropy =     6.3836

     27  H    Isotropic =    31.1785   Anisotropy =    10.6232

  Exact polarizability: 122.114  -1.528 117.408   1.312   3.109 106.552
 Approx polarizability: 122.761  -2.535 124.123   1.307   3.162 118.150

                      1                      2                      3
                      A                      A                      A
 Frequencies --     34.0779                59.6655                90.0104
 Red. masses --      2.7240                 2.5345                 2.1040
 Frc consts  --      0.0019                 0.0053                 0.0100
 IR Inten    --      0.4873                 0.3753                 0.1609

                      4                      5                      6
                      A                      A                      A
 Frequencies --    103.8175               136.4820               155.6555
 Red. masses --      2.0021                 2.1017                 2.1420
 Frc consts  --      0.0127                 0.0231                 0.0306
 IR Inten    --      1.1183                 3.9592                 0.8815

                      7                      8                      9
                      A                      A                      A
 Frequencies --    223.3798               231.6342               269.5832
 Red. masses --      1.2605                 1.6164                 1.5517
 Frc consts  --      0.0371                 0.0511                 0.0664
 IR Inten    --      6.0310                18.8990                 2.5146

                     10                     11                     12
                      A                      A                      A
 Frequencies --    291.5660               310.5830               320.5888
 Red. masses --      1.9553                 1.3378                 2.3315
 Frc consts  --      0.0979                 0.0760                 0.1412
 IR Inten    --      1.6613                49.9147                 1.4776

                     13                     14                     15
                      A                      A                      A
 Frequencies --    411.5129               447.6104               480.3426
 Red. masses --      2.1088                 2.2905                 2.4389
 Frc consts  --      0.2104                 0.2704                 0.3315
 IR Inten    --      1.0748                 6.3227                10.8992

                     16                     17                     18
                      A                      A                      A
 Frequencies --    570.2699               747.5331               759.9224
 Red. masses --      2.9349                 1.8225                 1.5087
 Frc consts  --      0.5623                 0.6000                 0.5133
 IR Inten    --     21.9761                 3.9926                11.8760

                     19                     20                     21
                      A                      A                      A
 Frequencies --    783.8524               814.1673               829.2994
 Red. masses --      1.1496                 1.1574                 1.6097
 Frc consts  --      0.4162                 0.4520                 0.6523
 IR Inten    --      8.6710                 5.0131                31.3040

                     22                     23                     24
                      A                      A                      A
 Frequencies --    890.9801               909.3296               957.4027
 Red. masses --      2.2070                 1.7714                 1.5622
 Frc consts  --      1.0323                 0.8630                 0.8437
 IR Inten    --    121.9791                68.2050                77.2026

                     25                     26                     27
                      A                      A                      A
 Frequencies --    992.4506              1011.0220              1057.6329
 Red. masses --      2.3980                 1.8397                 2.6509
 Frc consts  --      1.3916                 1.1080                 1.7471
 IR Inten    --     13.6961                13.2539                49.9082

                     28                     29                     30
                      A                      A                      A
 Frequencies --   1065.8465              1087.1260              1097.5551
 Red. masses --      2.3946                 2.0751                 1.8484
 Frc consts  --      1.6028                 1.4449                 1.3119
 IR Inten    --      4.9482                48.7336                18.6581

                     31                     32                     33
                      A                      A                      A
 Frequencies --   1118.6482              1147.2152              1155.7957
 Red. masses --      2.0971                 1.6929                 1.4959
 Frc consts  --      1.5462                 1.3127                 1.1774
 IR Inten    --     16.0290                22.5245                24.7870

                     34                     35                     36
                      A                      A                      A
 Frequencies --   1224.6130              1243.5659              1289.9802
 Red. masses --      1.7891                 2.0256                 1.4348
 Frc consts  --      1.5808                 1.8456                 1.4067
 IR Inten    --     34.5955                30.3264                16.7764

                     37                     38                     39
                      A                      A                      A
 Frequencies --   1318.4749              1337.3034              1363.6141
 Red. masses --      1.1436                 1.3517                 1.2838
 Frc consts  --      1.1713                 1.4243                 1.4065
 IR Inten    --      5.6390                 1.9452                28.5765

                     40                     41                     42
                      A                      A                      A
 Frequencies --   1387.9859              1393.8453              1395.5147
 Red. masses --      1.2406                 1.3024                 1.2195
 Frc consts  --      1.4081                 1.4908                 1.3993
 IR Inten    --     34.1128                27.2955                 2.1860

                     43                     44                     45
                      A                      A                      A
 Frequencies --   1397.9059              1408.1706              1413.7732
 Red. masses --      1.1634                 1.2901                 1.2575
 Frc consts  --      1.3394                 1.5072                 1.4809
 IR Inten    --      2.9068                 7.7744                26.6275

                     46                     47                     48
                      A                      A                      A
 Frequencies --   1417.7085              1429.4095              1476.6060
 Red. masses --      1.3104                 1.3760                 1.0894
 Frc consts  --      1.5518                 1.6565                 1.3995
 IR Inten    --     25.2287                13.0157                 0.9375

                     49                     50                     51
                      A                      A                      A
 Frequencies --   1486.1147              1492.2993              1496.1878
 Red. masses --      1.0630                 1.0601                 1.0816
 Frc consts  --      1.3832                 1.3910                 1.4265
 IR Inten    --      2.8083                 4.2902                 3.5648

                     52                     53                     54
                      A                      A                      A
 Frequencies --   1498.9786              1501.3833              1505.1454
 Red. masses --      1.0604                 1.0666                 1.0449
 Frc consts  --      1.4038                 1.4166                 1.3947
 IR Inten    --      0.5564                 6.9315                 2.5455

                     55                     56                     57
                      A                      A                      A
 Frequencies --   1512.7628              1529.2396              1659.5391
 Red. masses --      1.0710                 1.0939                 1.0882
 Frc consts  --      1.4440                 1.5072                 1.7657
 IR Inten    --      5.3772                 2.0906                30.8144

                     58                     59                     60
                      A                      A                      A
 Frequencies --   2943.4837              3005.6650              3024.1494
 Red. masses --      1.0724                 1.0592                 1.0638
 Frc consts  --      5.4745                 5.6381                 5.7322
 IR Inten    --    122.1074                71.4848                76.7123

                     61                     62                     63
                      A                      A                      A
 Frequencies --   3027.2880              3029.7098              3044.4517
 Red. masses --      1.0604                 1.0643                 1.0503
 Frc consts  --      5.7257                 5.7560                 5.7355
 IR Inten    --     80.9396                24.7799                28.8179

                     64                     65                     66
                      A                      A                      A
 Frequencies --   3045.4440              3046.6441              3051.9845
 Red. masses --      1.0384                 1.0850                 1.0865
 Frc consts  --      5.6744                 5.9339                 5.9629
 IR Inten    --     46.6446                26.7767                44.2308

                     67                     68                     69
                      A                      A                      A
 Frequencies --   3067.6863              3068.4916              3081.3757
 Red. masses --      1.1027                 1.0996                 1.1032
 Frc consts  --      6.1143                 6.1003                 6.1717
 IR Inten    --     77.3206                46.9746               125.9952

                     70                     71                     72
                      A                      A                      A
 Frequencies --   3108.1289              3116.2355              3118.2889
 Red. masses --      1.1008                 1.1019                 1.1032
 Frc consts  --      6.2655                 6.3044                 6.3202
 IR Inten    --     71.0485                51.2021                59.5229

                     73                     74                     75
                      A                      A                      A
 Frequencies --   3131.1559              3479.6520              3561.7348
 Red. masses --      1.1014                 1.0505                 1.0914
 Frc consts  --      6.3621                 7.4938                 8.1572
 IR Inten    --     66.4510                 1.2102                 0.0985

 - Thermochemistry -
 -------------------
 Temperature   298.150 Kelvin.  Pressure   1.00000 Atm.
 Atom     1 has atomic number  7 and mass  14.00307

 Molecular mass:   130.14700 amu.
 Principal axes and moments of inertia in atomic units:
                           1         2         3
     Eigenvalues --   757.889042286.119032716.39589
           X            0.99998   0.00375   0.00472
           Y           -0.00374   0.99999  -0.00050
           Z           -0.00472   0.00048   0.99999
 This molecule is an asymmetric top.
 Rotational symmetry number  1.
 Warning -- assumption of classical behavior for rotation
           may cause significant error
 Rotational temperatures (Kelvin)      0.11428     0.03789     0.03189
 Rotational constants (GHZ):           2.38127     0.78943     0.66439
 Zero-point vibrational energy     662098.6 (Joules/Mol)
                                  158.24537 (Kcal/Mol)
 Warning -- explicit consideration of  16 degrees of freedom as
           vibrations may cause significant error
 Vibrational temperatures:     49.03    85.85   129.50   149.37   196.37
          (Kelvin)            223.95   321.39   333.27   387.87   419.50
                              446.86   461.26   592.08   644.01   691.11
                              820.49  1075.53  1093.36  1127.79  1171.41
                             1193.18  1281.92  1308.32  1377.49  1427.91
                             1454.64  1521.70  1533.52  1564.13  1579.14
                             1609.49  1650.59  1662.93  1761.94  1789.21
                             1855.99  1896.99  1924.08  1961.94  1997.00
                             2005.43  2007.83  2011.27  2026.04  2034.10
                             2039.77  2056.60  2124.51  2138.19  2147.09
                             2152.68  2156.70  2160.16  2165.57  2176.53
                             2200.23  2387.71  4235.02  4324.48  4351.08
                             4355.59  4359.08  4380.29  4381.71  4383.44
                             4391.12  4413.72  4414.87  4433.41  4471.90
                             4483.57  4486.52  4505.03  5006.44  5124.54

 Zero-point correction=                           0.252180 (Hartree/Particle)
 Thermal correction to Energy=                    0.264175
 Thermal correction to Enthalpy=                  0.265119
 Thermal correction to Gibbs Free Energy=         0.213818
 Sum of electronic and zero-point Energies=           -386.847082
 Sum of electronic and thermal Energies=              -386.835087
 Sum of electronic and thermal Enthalpies=            -386.834143
 Sum of electronic and thermal Free Energies=         -386.885444

                     E (Thermal)             CV                S
                      KCal/Mol        Cal/Mol-Kelvin    Cal/Mol-Kelvin
 Total                  165.772             43.091            107.973
 Electronic               0.000              0.000              0.000
 Translational            0.889              2.981             40.503
 Rotational               0.889              2.981             29.933
 Vibrational            163.995             37.129             37.536
 Vibration     1          0.594              1.983              5.577
 Vibration     2          0.597              1.974              4.468
 Vibration     3          0.602              1.956              3.660
 Vibration     4          0.605              1.946              3.381
 Vibration     5          0.614              1.917              2.853
 Vibration     6          0.620              1.896              2.602
 Vibration     7          0.649              1.805              1.932
 Vibration     8          0.653              1.793              1.866
 Vibration     9          0.674              1.729              1.599
 Vibration    10          0.687              1.689              1.465
 Vibration    11          0.699              1.654              1.359
 Vibration    12          0.706              1.634              1.307
 Vibration    13          0.775              1.445              0.921
 Vibration    14          0.807              1.366              0.803
 Vibration    15          0.837              1.294              0.709
 Vibration    16          0.926              1.096              0.504

 Optimization completed.
    -- Stationary point found.
 Normal termination of Gaussian 16 at Thu Jul 11 19:11:03 2024.
 Gaussian 16:  EM64L-G16RevA.03 25-Dec-2016

 ----------------------------------------------------------------------
 # TD(NStates=10, Root=1) B3LYP/6-31G** SCRF=(Solvent=water) volume pop
 =NPA density=current Geom=AllCheck Guess=Read
 ----------------------------------------------------------------------

 Structure from the checkpoint file:  "QOHMWDJIBGVPIF-UHFFFAOYSA-N_conf_2_2.chk"
 ----------------------------------
 QOHMWDJIBGVPIF-UHFFFAOYSA-N_conf_2
 ----------------------------------
 Charge =  0 Multiplicity = 1

                         Standard orientation:
 ---------------------------------------------------------------------
 Center     Atomic      Atomic             Coordinates (Angstroms)
 Number     Number       Type             X           Y           Z
 ---------------------------------------------------------------------
      1          7           0        3.542048   -0.844487   -0.081871
      2          6           0        2.923572    0.489076   -0.135737
      3          6           0        1.404669    0.545525   -0.388428
      4          6           0        0.577230   -0.037556    0.776366
      5          7           0       -0.868640   -0.188068    0.614309
      6          6           0       -1.266683   -1.162462   -0.400445
      7          6           0       -2.688928   -1.692051   -0.199616
      8          6           0       -1.666349    1.039688    0.677526
      9          6           0       -1.835160    1.872665   -0.607232
     10          1           0        3.144804   -1.378370    0.688220
     11          1           0        3.294034   -1.360715   -0.924999
     12          1           0        3.155164    1.000495    0.808131
     13          1           0        3.432136    1.057662   -0.923745
     14          1           0        1.179343    0.004943   -1.317666
     15          1           0        1.124033    1.591881   -0.557036
     16          1           0        0.972188   -1.035705    1.011601
     17          1           0        0.749493    0.579632    1.668587
     18          1           0       -0.566285   -2.003368   -0.327128
     19          1           0       -1.171434   -0.778850   -1.432292
     20          1           0       -3.444218   -0.914352   -0.349345
     21          1           0       -2.812129   -2.094748    0.810940
     22          1           0       -2.895749   -2.491694   -0.918156
     23          1           0       -2.668959    0.774957    1.038145
     24          1           0       -1.223716    1.668912    1.458497
     25          1           0       -0.883390    2.255169   -0.984912
     26          1           0       -2.304692    1.291420   -1.407487
     27          1           0       -2.484588    2.731304   -0.403020
 ---------------------------------------------------------------------

 SCF Done:  E(RB3LYP) =  -387.099261716     A.U. after    1 cycles

 Excitation energies and oscillator strengths:

 Excited State   1:      Singlet-A      6.3677 eV  194.71 nm  f=0.0162  <S**2>=0.000
      37 -> 38         0.69071
      37 -> 39        -0.12976
 This state for optimization and/or second-order correction.
 Total Energy, E(TD-HF/TD-DFT) =  -386.865252085
 Copying the excited state density for this state as the 1-particle RhoCI density.

 Excited State   2:      Singlet-A      6.9065 eV  179.52 nm  f=0.0146  <S**2>=0.000
      36 -> 38        -0.10334
      37 -> 38         0.12786
      37 -> 39         0.68008

 Excited State   3:      Singlet-A      7.2332 eV  171.41 nm  f=0.0090  <S**2>=0.000
      37 -> 40         0.22529
      37 -> 41         0.65941

 Excited State   4:      Singlet-A      7.2678 eV  170.59 nm  f=0.0147  <S**2>=0.000
      37 -> 40         0.66246
      37 -> 41        -0.21766

 Excited State   5:      Singlet-A      7.4309 eV  166.85 nm  f=0.0297  <S**2>=0.000
      36 -> 38         0.59336
      36 -> 39         0.35306
      37 -> 39         0.10753

 Excited State   6:      Singlet-A      7.7250 eV  160.50 nm  f=0.0064  <S**2>=0.000
      37 -> 42         0.69282

 Excited State   7:      Singlet-A      8.1702 eV  151.75 nm  f=0.0284  <S**2>=0.000
      37 -> 43         0.35939
      37 -> 44         0.45651
      37 -> 45        -0.37203

 Excited State   8:      Singlet-A      8.2024 eV  151.16 nm  f=0.0110  <S**2>=0.000
      37 -> 43         0.58299
      37 -> 44        -0.32166
      37 -> 45         0.16639

 Excited State   9:      Singlet-A      8.2521 eV  150.25 nm  f=0.0485  <S**2>=0.000
      36 -> 38        -0.35734
      36 -> 39         0.57792
      37 -> 44        -0.10244

 Excited State  10:      Singlet-A      8.3606 eV  148.30 nm  f=0.0456  <S**2>=0.000
      36 -> 40         0.10293
      36 -> 41        -0.10573
      37 -> 44         0.35969
      37 -> 45         0.53655
      37 -> 46        -0.15949

 The electronic state is 1-A.
 Alpha  occ. eigenvalues --  -14.31334 -14.31018 -10.20260 -10.20152 -10.20131
 Alpha  occ. eigenvalues --  -10.20073 -10.17097 -10.17037 -10.16800  -0.90756
 Alpha  occ. eigenvalues --   -0.87370  -0.75784  -0.74865  -0.71412  -0.64886
 Alpha  occ. eigenvalues --   -0.62939  -0.58749  -0.54773  -0.49108  -0.48074
 Alpha  occ. eigenvalues --   -0.46455  -0.44770  -0.42183  -0.41423  -0.40646
 Alpha  occ. eigenvalues --   -0.40199  -0.39135  -0.36914  -0.36746  -0.36156
 Alpha  occ. eigenvalues --   -0.34995  -0.33317  -0.33222  -0.32560  -0.32059
 Alpha  occ. eigenvalues --   -0.23806  -0.19359
 Alpha virt. eigenvalues --    0.07606   0.09330   0.10934   0.11319   0.12692
 Alpha virt. eigenvalues --    0.13996   0.14412   0.14963   0.16344   0.16819
 Alpha virt. eigenvalues --    0.17184   0.17979   0.18596   0.18926   0.20437

 Mulliken charges:
               1
     1  N   -0.570323
     2  C   -0.070606
     3  C   -0.150878
     4  C   -0.005758
     5  N   -0.241853
     6  C    0.019166
     7  C   -0.299529
     8  C   -0.015933
     9  C   -0.271662
    10  H    0.163303
    11  H    0.181279
    12  H    0.099925
    13  H    0.110400
    14  H    0.067951
    15  H    0.077287
    16  H    0.016018
    17  H    0.113829
    18  H    0.028409
    19  H    0.083352
    20  H    0.072274
    21  H    0.093933
    22  H    0.086057
    23  H    0.089672
    24  H    0.087541
    25  H    0.082001
    26  H    0.056542
    27  H    0.097603
 Sum of Mulliken charges =  -0.00000

 Dipole moment (field-independent basis, Debye):
    X=             -3.0966    Y=              1.2325    Z=              0.8390  Tot=              3.4369
 Quadrupole moment (field-independent basis, Debye-Ang):
   XX=            -78.2672   YY=            -62.5649   ZZ=            -60.1843
   XY=              2.9914   XZ=             -2.0473   YZ=              1.3010

 Summary of Natural Population Analysis:

                                       Natural Population
                Natural  -----------------------------------------------
    Atom  No    Charge         Core      Valence    Rydberg      Total
 -----------------------------------------------------------------------
      N    1   -0.91770      1.99969     5.90205    0.01596     7.91770
      C    2   -0.27892      1.99937     4.26146    0.01809     6.27892
      C    3   -0.48413      1.99927     4.47385    0.01101     6.48413
      C    4   -0.31367      1.99928     4.29442    0.01997     6.31367
      N    5   -0.04625      1.99938     5.03754    0.00933     7.04625
      C    6   -0.31890      1.99930     4.30313    0.01647     6.31890
      C    7   -0.71118      1.99945     4.70166    0.01006     6.71118
      C    8   -0.31606      1.99932     4.29932    0.01743     6.31606
      C    9   -0.70121      1.99941     4.69216    0.00964     6.70121
      H   10    0.31949      0.00000     0.65296    0.02755     0.68051
      H   11    0.34005      0.00000     0.63699    0.02296     0.65995
      H   12    0.22328      0.00000     0.77079    0.00593     0.77672
      H   13    0.24053      0.00000     0.75565    0.00382     0.75947
      H   14    0.20883      0.00000     0.77012    0.02105     0.79117
      H   15    0.21494      0.00000     0.76837    0.01669     0.78506
      H   16    0.16330      0.00000     0.79308    0.04362     0.83670
      H   17    0.24439      0.00000     0.74348    0.01213     0.75561
      H   18    0.18116      0.00000     0.77964    0.03920     0.81884
      H   19    0.21745      0.00000     0.75106    0.03148     0.78255
      H   20    0.20298      0.00000     0.77732    0.01970     0.79702
      H   21    0.22408      0.00000     0.76497    0.01096     0.77592
      H   22    0.22475      0.00000     0.76362    0.01163     0.77525
      H   23    0.22474      0.00000     0.75212    0.02314     0.77526
      H   24    0.22412      0.00000     0.75608    0.01980     0.77588
      H   25    0.20787      0.00000     0.77556    0.01657     0.79213
      H   26    0.19200      0.00000     0.78338    0.02462     0.80800
      H   27    0.23405      0.00000     0.75536    0.01058     0.76595
 =======================================================================
   * Total *   -0.00000     17.99446    55.51613    0.48940    74.00000

 1\1\GINC-CN13\SP\RB3LYP TD-FC\6-31G(d,p)\C7H18N2\QDUEZ\11-Jul-2024\0\\
 # TD(NStates=10, Root=1) B3LYP/6-31G** SCRF=(Solvent=water) volume pop
 =NPA density=current Geom=AllCheck Guess=Read\\QOHMWDJIBGVPIF-UHFFFAOY
 SA-N_conf_2\\0,1\N,0,3.6129220574,0.9902156683,-0.4005833665\C,0,2.999
 6636416,-0.329567923,-0.6148040819\C,0,1.553321496,-0.5173027061,-0.11
 78567863\C,0,0.5312436676,0.3336253416,-0.9005831563\N,0,-0.8577199368
 ,0.3727829454,-0.443740629\C,0,-1.0495038251,1.0069712631,0.8595746738
 \C,0,-2.4780754531,1.5122418597,1.0774320784\C,0,-1.6675572512,-0.8201

 Normal termination of Gaussian 16 at Thu Jul 11 19:40:16 2024.
