 Gaussian 16, Revision A.03,

 -------------------------------------------------------
 # opt=CalcFc B3LYP/6-31G** SCRF=(Solvent=water) scf=xqc
 -------------------------------------------------------

 ----------------------------------
 QOHMWDJIBGVPIF-UHFFFAOYSA-N_conf_1
 ----------------------------------
 Symbolic Z-matrix:
 Charge =  0 Multiplicity = 1

 SCF Done:  E(RB3LYP) =  -387.100155369     A.U. after   11 cycles
 SCF Done:  E(RB3LYP) =  -387.102677015     A.U. after    9 cycles
 SCF Done:  E(RB3LYP) =  -387.102793216     A.U. after    9 cycles
 SCF Done:  E(RB3LYP) =  -387.102794965     A.U. after    7 cycles
 SCF Done:  E(RB3LYP) =  -387.102795008     A.U. after    7 cycles
 SCF Done:  E(RB3LYP) =  -387.102794996     A.U. after    6 cycles
 Optimization completed.
    -- Stationary point found.
 Normal termination of Gaussian 16 at Thu Jul 11 18:32:10 2024.

 ----------------------------------------------------------------------
 # freq B3LYP/6-31G** SCRF=(Solvent=water) volume NMR pop=NPA density=c
 urrent Geom=AllCheck Guess=Read
 ----------------------------------------------------------------------

 Structure from the checkpoint file:  "QOHMWDJIBGVPIF-UHFFFAOYSA-N_conf_1_1.chk"
 ----------------------------------
 QOHMWDJIBGVPIF-UHFFFAOYSA-N_conf_1
 ----------------------------------
 Charge =  0 Multiplicity = 1

 SCF Done:  E(RB3LYP) =  -387.102794996     A.U. after    1 cycles

      1  N    Isotropic =   233.6438   Anisotropy =    31.3404

      2  C    Isotropic =   149.1637   Anisotropy =    28.2930

      3  C    Isotropic =   158.8735   Anisotropy =    24.6855

      4  C    Isotropic =   138.8912   Anisotropy =    52.7401

      5  N    Isotropic =   202.1319   Anisotropy =    13.9995

      6  C    Isotropic =   143.4473   Anisotropy =    48.7142

      7  C    Isotropic =   176.6074   Anisotropy =    23.3660

      8  C    Isotropic =   142.3729   Anisotropy =    49.9602

      9  C    Isotropic =   176.6945   Anisotropy =    23.6180

     10  H    Isotropic =    31.1302   Anisotropy =    15.6260

     11  H    Isotropic =    31.6985   Anisotropy =    12.1309

     12  H    Isotropic =    29.2855   Anisotropy =     6.4568

     13  H    Isotropic =    28.6300   Anisotropy =     8.9554

     14  H    Isotropic =    30.1326   Anisotropy =     5.5462

     15  H    Isotropic =    30.4050   Anisotropy =     5.6039

     16  H    Isotropic =    29.9209   Anisotropy =     6.0540

     17  H    Isotropic =    28.4657   Anisotropy =     7.9070

     18  H    Isotropic =    29.6872   Anisotropy =     7.3710

     19  H    Isotropic =    29.1271   Anisotropy =     6.2779

     20  H    Isotropic =    30.4603   Anisotropy =     6.6250

     21  H    Isotropic =    30.8628   Anisotropy =     8.3264

     22  H    Isotropic =    30.8405   Anisotropy =    10.7492

     23  H    Isotropic =    29.1900   Anisotropy =     5.5488

     24  H    Isotropic =    29.6559   Anisotropy =     7.2871

     25  H    Isotropic =    30.5285   Anisotropy =     7.2114

     26  H    Isotropic =    30.8759   Anisotropy =     8.2585

     27  H    Isotropic =    30.8800   Anisotropy =    10.7001

  Exact polarizability: 123.914  -1.558 118.429  -0.496  -1.404 107.568
 Approx polarizability: 123.792  -1.344 123.463  -0.773  -1.472 118.113

                      1                      2                      3
                      A                      A                      A
 Frequencies --     31.3817                65.3687                83.8724
 Red. masses --      3.0071                 2.8596                 2.1130
 Frc consts  --      0.0017                 0.0072                 0.0088
 IR Inten    --      0.5456                 1.4038                 1.8504

                      4                      5                      6
                      A                      A                      A
 Frequencies --     91.2632               126.1418               177.3250
 Red. masses --      1.9995                 2.3856                 1.3771
 Frc consts  --      0.0098                 0.0224                 0.0255
 IR Inten    --      0.1017                 3.1194                17.0565

                      7                      8                      9
                      A                      A                      A
 Frequencies --    213.4896               227.8883               271.0936
 Red. masses --      1.3344                 1.2929                 1.5465
 Frc consts  --      0.0358                 0.0396                 0.0670
 IR Inten    --      1.5631                25.2958                20.1035

                     10                     11                     12
                      A                      A                      A
 Frequencies --    285.9978               291.9348               320.9420
 Red. masses --      1.6110                 2.1900                 2.0834
 Frc consts  --      0.0776                 0.1100                 0.1264
 IR Inten    --      9.4713                 4.6523                 1.0756

                     13                     14                     15
                      A                      A                      A
 Frequencies --    428.2226               453.1517               466.5931
 Red. masses --      2.7240                 2.7032                 2.6193
 Frc consts  --      0.2943                 0.3271                 0.3360
 IR Inten    --      8.6515                 3.3210                 5.1227

                     16                     17                     18
                      A                      A                      A
 Frequencies --    530.9836               758.4189               789.2404
 Red. masses --      2.4686                 1.4820                 1.3916
 Frc consts  --      0.4101                 0.5023                 0.5107
 IR Inten    --     18.1039                23.2024                 4.1867

                     19                     20                     21
                      A                      A                      A
 Frequencies --    805.4608               823.7836               856.5902
 Red. masses --      1.1429                 1.5130                 1.2882
 Frc consts  --      0.4369                 0.6050                 0.5569
 IR Inten    --      4.7593                 9.8500                97.6868

                     22                     23                     24
                      A                      A                      A
 Frequencies --    901.2201               931.1126               958.0522
 Red. masses --      2.5633                 1.8762                 1.6758
 Frc consts  --      1.2266                 0.9584                 0.9062
 IR Inten    --     40.6265                21.3990                24.7492

                     25                     26                     27
                      A                      A                      A
 Frequencies --   1006.9391              1032.7000              1073.5505
 Red. masses --      2.0750                 1.5345                 2.5310
 Frc consts  --      1.2396                 0.9642                 1.7187
 IR Inten    --      9.5692                10.4875                36.0502

                     28                     29                     30
                      A                      A                      A
 Frequencies --   1081.3247              1087.8135              1101.6828
 Red. masses --      2.7030                 2.0603                 1.7604
 Frc consts  --      1.8621                 1.4365                 1.2589
 IR Inten    --     14.9613                25.7509                 6.3248

                     31                     32                     33
                      A                      A                      A
 Frequencies --   1109.4601              1118.5640              1181.7283
 Red. masses --      1.9709                 1.6630                 1.6688
 Frc consts  --      1.4294                 1.2259                 1.3731
 IR Inten    --     25.7102                35.1062                22.6300

                     34                     35                     36
                      A                      A                      A
 Frequencies --   1226.4737              1236.3498              1293.9488
 Red. masses --      1.8712                 2.1792                 1.3250
 Frc consts  --      1.6584                 1.9626                 1.3071
 IR Inten    --     24.8556                34.0468                12.3340

                     37                     38                     39
                      A                      A                      A
 Frequencies --   1307.9971              1322.7444              1332.1707
 Red. masses --      1.3387                 1.1011                 1.1985
 Frc consts  --      1.3494                 1.1351                 1.2532
 IR Inten    --      4.5377                 2.7960                32.1383

                     40                     41                     42
                      A                      A                      A
 Frequencies --   1339.5093              1358.9985              1399.6976
 Red. masses --      1.1805                 1.2770                 1.2716
 Frc consts  --      1.2480                 1.3896                 1.4678
 IR Inten    --     28.0166                 6.5262                 7.0825

                     43                     44                     45
                      A                      A                      A
 Frequencies --   1405.6679              1419.2662              1425.5810
 Red. masses --      1.2903                 1.3716                 1.3260
 Frc consts  --      1.5021                 1.6278                 1.5878
 IR Inten    --      8.2131                13.3343                20.6145

                     46                     47                     48
                      A                      A                      A
 Frequencies --   1428.6747              1429.7473              1487.9531
 Red. masses --      1.4596                 1.3938                 1.0766
 Frc consts  --      1.7553                 1.6787                 1.4044
 IR Inten    --     12.1666                22.1604                 2.3516

                     49                     50                     51
                      A                      A                      A
 Frequencies --   1491.6928              1495.4137              1496.2090
 Red. masses --      1.0556                 1.0560                 1.0519
 Frc consts  --      1.3839                 1.3914                 1.3875
 IR Inten    --      1.9387                 0.5062                 0.8820

                     52                     53                     54
                      A                      A                      A
 Frequencies --   1502.0871              1515.6289              1518.4617
 Red. masses --      1.0425                 1.0854                 1.0810
 Frc consts  --      1.3859                 1.4690                 1.4685
 IR Inten    --      2.2150                 6.5431                 4.0661

                     55                     56                     57
                      A                      A                      A
 Frequencies --   1518.9155              1523.4232              1654.3929
 Red. masses --      1.0858                 1.0915                 1.0875
 Frc consts  --      1.4760                 1.4925                 1.7537
 IR Inten    --      2.2430                 6.7909                35.2641

                     58                     59                     60
                      A                      A                      A
 Frequencies --   2917.2970              2925.3107              2931.3232
 Red. masses --      1.0737                 1.0740                 1.0733
 Frc consts  --      5.3838                 5.4150                 5.4335
 IR Inten    --     63.2396                30.1823               321.6109

                     61                     62                     63
                      A                      A                      A
 Frequencies --   2966.4071              3030.3930              3044.1193
 Red. masses --      1.0721                 1.0635                 1.0358
 Frc consts  --      5.5581                 5.7539                 5.6551
 IR Inten    --    129.3732                31.8854                35.3319

                     64                     65                     66
                      A                      A                      A
 Frequencies --   3044.7413              3048.3781              3071.2352
 Red. masses --      1.0357                 1.0886                 1.0998
 Frc consts  --      5.6569                 5.9604                 6.1123
 IR Inten    --     31.0233                71.8950                61.1297

                     67                     68                     69
                      A                      A                      A
 Frequencies --   3083.8108              3085.4012              3112.1864
 Red. masses --      1.0889                 1.0863                 1.0977
 Frc consts  --      6.1011                 6.0930                 6.2644
 IR Inten    --     32.5592                24.3393                24.9450

                     70                     71                     72
                      A                      A                      A
 Frequencies --   3114.1338              3116.7813              3119.5614
 Red. masses --      1.1005                 1.0968                 1.1025
 Frc consts  --      6.2880                 6.2777                 6.3214
 IR Inten    --     95.4367                42.4433                78.9217

                     73                     74                     75
                      A                      A                      A
 Frequencies --   3122.1433              3476.3169              3555.6450
 Red. masses --      1.0983                 1.0509                 1.0914
 Frc consts  --      6.3076                 7.4829                 8.1294
 IR Inten    --     78.0599                 1.2514                 0.0267

 - Thermochemistry -
 -------------------
 Temperature   298.150 Kelvin.  Pressure   1.00000 Atm.
 Atom     1 has atomic number  7 and mass  14.00307

 Molecular mass:   130.14700 amu.
 Principal axes and moments of inertia in atomic units:
                           1         2         3
     Eigenvalues --   854.053872210.215732845.00956
           X            1.00000   0.00219   0.00057
           Y           -0.00219   0.99999  -0.00367
           Z           -0.00058   0.00367   0.99999
 This molecule is an asymmetric top.
 Rotational symmetry number  1.
 Warning -- assumption of classical behavior for rotation
           may cause significant error
 Rotational temperatures (Kelvin)      0.10142     0.03919     0.03044
 Rotational constants (GHZ):           2.11315     0.81655     0.63435
 Zero-point vibrational energy     661412.2 (Joules/Mol)
                                  158.08131 (Kcal/Mol)
 Warning -- explicit consideration of  16 degrees of freedom as
           vibrations may cause significant error
 Vibrational temperatures:     45.15    94.05   120.67   131.31   181.49
          (Kelvin)            255.13   307.16   327.88   390.04   411.49
                              420.03   461.76   616.12   651.98   671.32
                              763.97  1091.20  1135.54  1158.88  1185.24
                             1232.44  1296.65  1339.66  1378.42  1448.76
                             1485.82  1544.60  1555.79  1565.12  1585.08
                             1596.27  1609.36  1700.24  1764.62  1778.83
                             1861.70  1881.92  1903.13  1916.70  1927.26
                             1955.30  2013.85  2022.44  2042.01  2051.09
                             2055.54  2057.09  2140.83  2146.21  2151.57
                             2152.71  2161.17  2180.65  2184.73  2185.38
                             2191.87  2380.30  4197.34  4208.87  4217.52
                             4268.00  4360.06  4379.81  4380.70  4385.94
                             4418.82  4436.92  4439.20  4477.74  4480.54
                             4484.35  4488.35  4492.07  5001.64  5115.78

 Zero-point correction=                           0.251919 (Hartree/Particle)
 Thermal correction to Energy=                    0.263951
 Thermal correction to Enthalpy=                  0.264895
 Thermal correction to Gibbs Free Energy=         0.213317
 Sum of electronic and zero-point Energies=           -386.850876
 Sum of electronic and thermal Energies=              -386.838844
 Sum of electronic and thermal Enthalpies=            -386.837900
 Sum of electronic and thermal Free Energies=         -386.889478

                     E (Thermal)             CV                S
                      KCal/Mol        Cal/Mol-Kelvin    Cal/Mol-Kelvin
 Total                  165.632             42.981            108.554
 Electronic               0.000              0.000              0.000
 Translational            0.889              2.981             40.503
 Rotational               0.889              2.981             30.064
 Vibrational            163.854             37.019             37.987
 Vibration     1          0.594              1.983              5.740
 Vibration     2          0.597              1.971              4.288
 Vibration     3          0.601              1.960              3.798
 Vibration     4          0.602              1.955              3.633
 Vibration     5          0.611              1.927              3.004
 Vibration     6          0.628              1.870              2.356
 Vibration     7          0.644              1.820              2.014
 Vibration     8          0.651              1.798              1.896
 Vibration     9          0.675              1.726              1.589
 Vibration    10          0.684              1.700              1.498
 Vibration    11          0.687              1.689              1.463
 Vibration    12          0.706              1.633              1.305
 Vibration    13          0.790              1.409              0.864
 Vibration    14          0.812              1.354              0.786
 Vibration    15          0.824              1.324              0.747
 Vibration    16          0.886              1.181              0.585

 Optimization completed.
    -- Stationary point found.
 Normal termination of Gaussian 16 at Thu Jul 11 18:49:59 2024.
 Gaussian 16:  EM64L-G16RevA.03 25-Dec-2016

 ----------------------------------------------------------------------
 # TD(NStates=10, Root=1) B3LYP/6-31G** SCRF=(Solvent=water) volume pop
 =NPA density=current Geom=AllCheck Guess=Read
 ----------------------------------------------------------------------

 Structure from the checkpoint file:  "QOHMWDJIBGVPIF-UHFFFAOYSA-N_conf_1_2.chk"
 ----------------------------------
 QOHMWDJIBGVPIF-UHFFFAOYSA-N_conf_1
 ----------------------------------
 Charge =  0 Multiplicity = 1

                         Standard orientation:
 ---------------------------------------------------------------------
 Center     Atomic      Atomic             Coordinates (Angstroms)
 Number     Number       Type             X           Y           Z
 ---------------------------------------------------------------------
      1          7           0       -3.429226    0.592369   -0.008573
      2          6           0       -2.877607   -0.772685    0.025726
      3          6           0       -1.416127   -0.798848   -0.433795
      4          6           0       -0.482592    0.027431    0.458048
      5          7           0        0.916464    0.010631    0.004473
      6          6           0        1.642708    1.211438    0.446143
      7          6           0        1.329552    2.447672   -0.398029
      8          6           0        1.605506   -1.220713    0.421649
      9          6           0        2.804305   -1.571300   -0.461314
     10          1           0       -4.390566    0.570704    0.326385
     11          1           0       -3.491568    0.894677   -0.980024
     12          1           0       -2.938953   -1.130248    1.061774
     13          1           0       -3.450825   -1.489671   -0.585328
     14          1           0       -1.088956   -1.845135   -0.468806
     15          1           0       -1.345967   -0.420556   -1.462663
     16          1           0       -0.567038   -0.319492    1.506788
     17          1           0       -0.839741    1.059083    0.451123
     18          1           0        1.448410    1.424249    1.514885
     19          1           0        2.714606    1.006324    0.368685
     20          1           0        0.272770    2.727687   -0.346196
     21          1           0        1.578471    2.266717   -1.448367
     22          1           0        1.913968    3.304708   -0.046932
     23          1           0        0.887264   -2.044259    0.366824
     24          1           0        1.921251   -1.160963    1.480986
     25          1           0        3.579199   -0.798682   -0.435591
     26          1           0        2.489660   -1.697460   -1.501979
     27          1           0        3.262873   -2.506647   -0.123432
 ---------------------------------------------------------------------

 SCF Done:  E(RB3LYP) =  -387.102794996     A.U. after    1 cycles

 Excitation energies and oscillator strengths:

 Excited State   1:      Singlet-A      7.1238 eV  174.04 nm  f=0.0139  <S**2>=0.000
      37 -> 38         0.64589
      37 -> 39         0.25656
 This state for optimization and/or second-order correction.
 Total Energy, E(TD-HF/TD-DFT) =  -386.840999534
 Copying the excited state density for this state as the 1-particle RhoCI density.

 Excited State   2:      Singlet-A      7.3367 eV  168.99 nm  f=0.0536  <S**2>=0.000
      36 -> 38        -0.34041
      37 -> 38        -0.18329
      37 -> 39         0.57863

 Excited State   3:      Singlet-A      7.4139 eV  167.23 nm  f=0.0062  <S**2>=0.000
      36 -> 38         0.58041
      36 -> 39        -0.13999
      37 -> 38        -0.17832
      37 -> 39         0.29863

 Excited State   4:      Singlet-A      7.5933 eV  163.28 nm  f=0.0469  <S**2>=0.000
      37 -> 40         0.70149

 Excited State   5:      Singlet-A      7.8528 eV  157.89 nm  f=0.0949  <S**2>=0.000
      37 -> 41         0.68517

 Excited State   6:      Singlet-A      8.2418 eV  150.43 nm  f=0.1159  <S**2>=0.000
      37 -> 42         0.65197
      37 -> 43        -0.16320
      37 -> 44         0.16020

 Excited State   7:      Singlet-A      8.3933 eV  147.72 nm  f=0.0030  <S**2>=0.000
      36 -> 38         0.16764
      36 -> 39         0.63488
      36 -> 41        -0.23020

 Excited State   8:      Singlet-A      8.4319 eV  147.04 nm  f=0.0782  <S**2>=0.000
      36 -> 40        -0.12343
      37 -> 42         0.15364
      37 -> 43         0.64405

 Excited State   9:      Singlet-A      8.5126 eV  145.65 nm  f=0.0187  <S**2>=0.000
      36 -> 40         0.60331
      36 -> 41         0.23534
      36 -> 43        -0.19007
      36 -> 44        -0.10399
      37 -> 43         0.11583

 Excited State  10:      Singlet-A      8.7219 eV  142.15 nm  f=0.0082  <S**2>=0.000
      37 -> 42        -0.13883
      37 -> 44         0.62970
      37 -> 46        -0.18865

 The electronic state is 1-A.
 Alpha  occ. eigenvalues --  -14.31568 -14.30888 -10.20234 -10.20093 -10.20070
 Alpha  occ. eigenvalues --  -10.19532 -10.17406 -10.17049 -10.17023  -0.91001
 Alpha  occ. eigenvalues --   -0.87305  -0.75935  -0.75330  -0.71146  -0.64822
 Alpha  occ. eigenvalues --   -0.61599  -0.58234  -0.55743  -0.48654  -0.47468
 Alpha  occ. eigenvalues --   -0.45980  -0.45208  -0.43467  -0.42605  -0.41984
 Alpha  occ. eigenvalues --   -0.39223  -0.38284  -0.36540  -0.36311  -0.35479
 Alpha  occ. eigenvalues --   -0.34494  -0.34287  -0.33089  -0.31846  -0.31776
 Alpha  occ. eigenvalues --   -0.23505  -0.20764
 Alpha virt. eigenvalues --    0.08423   0.09778   0.10853   0.11832   0.13025
 Alpha virt. eigenvalues --    0.13786   0.14644   0.15735   0.16385   0.16724
 Alpha virt. eigenvalues --    0.17312   0.17695   0.18616   0.18940   0.19214

 Mulliken charges:
               1
     1  N   -0.538283
     2  C   -0.013821
     3  C   -0.131740
     4  C   -0.004181
     5  N   -0.225428
     6  C   -0.047920
     7  C   -0.324859
     8  C   -0.018285
     9  C   -0.334224
    10  H    0.110295
    11  H    0.114390
    12  H    0.039575
    13  H    0.029979
    14  H   -0.013555
    15  H    0.043988
    16  H    0.108151
    17  H    0.072896
    18  H    0.168110
    19  H    0.102426
    20  H    0.097939
    21  H    0.122450
    22  H    0.118353
    23  H    0.031734
    24  H    0.145956
    25  H    0.109853
    26  H    0.116977
    27  H    0.119224
 Sum of Mulliken charges =  -0.00000

 Dipole moment (field-independent basis, Debye):
    X=              6.7794    Y=              0.3791    Z=              1.0267  Tot=              6.8672
 Quadrupole moment (field-independent basis, Debye-Ang):
   XX=            -68.3066   YY=            -63.2932   ZZ=            -59.8555
   XY=              2.7652   XZ=              2.5705   YZ=             -0.6388

 Summary of Natural Population Analysis:

                                       Natural Population
                Natural  -----------------------------------------------
    Atom  No    Charge         Core      Valence    Rydberg      Total
 -----------------------------------------------------------------------
      N    1   -0.92922      1.99966     5.91216    0.01740     7.92922
      C    2   -0.26648      1.99939     4.25076    0.01633     6.26648
      C    3   -0.49493      1.99930     4.47937    0.01626     6.49493
      C    4   -0.31493      1.99925     4.29766    0.01803     6.31493
      N    5   -0.04320      1.99929     5.03466    0.00925     7.04320
      C    6   -0.31220      1.99930     4.29820    0.01470     6.31220
      C    7   -0.71101      1.99945     4.70125    0.01031     6.71101
      C    8   -0.32133      1.99930     4.30539    0.01664     6.32133
      C    9   -0.71301      1.99945     4.70268    0.01088     6.71301
      H   10    0.28400      0.00000     0.67939    0.03661     0.71600
      H   11    0.29375      0.00000     0.66429    0.04196     0.70625
      H   12    0.18374      0.00000     0.79565    0.02061     0.81626
      H   13    0.17461      0.00000     0.80778    0.01761     0.82539
      H   14    0.14734      0.00000     0.81615    0.03651     0.85266
      H   15    0.20075      0.00000     0.77573    0.02352     0.79925
      H   16    0.24390      0.00000     0.73138    0.02472     0.75610
      H   17    0.21532      0.00000     0.75894    0.02574     0.78468
      H   18    0.27957      0.00000     0.71115    0.00928     0.72043
      H   19    0.22791      0.00000     0.75386    0.01823     0.77209
      H   20    0.21780      0.00000     0.76883    0.01338     0.78220
      H   21    0.23945      0.00000     0.75568    0.00486     0.76055
      H   22    0.24569      0.00000     0.74872    0.00559     0.75431
      H   23    0.17630      0.00000     0.78158    0.04211     0.82370
      H   24    0.26711      0.00000     0.71877    0.01413     0.73289
      H   25    0.22786      0.00000     0.76474    0.00740     0.77214
      H   26    0.23535      0.00000     0.75827    0.00638     0.76465
      H   27    0.24585      0.00000     0.74897    0.00518     0.75415
 =======================================================================
   * Total *    0.00000     17.99437    55.52200    0.48362    74.00000

 1\1\GINC-CN36\SP\RB3LYP TD-FC\6-31G(d,p)\C7H18N2\QDUEZ\11-Jul-2024\0\\
 # TD(NStates=10, Root=1) B3LYP/6-31G** SCRF=(Solvent=water) volume pop
 =NPA density=current Geom=AllCheck Guess=Read\\QOHMWDJIBGVPIF-UHFFFAOY
 SA-N_conf_1\\0,1\N,0,3.4191864215,-0.8112433658,-0.4273871549\C,0,2.99
 50203427,0.5516211889,-0.0647387356\C,0,1.5001840682,0.7623618031,-0.3
 270752381\C,0,0.6005835827,-0.1645487598,0.4982518554\N,0,-0.832601174
 7,0.0318676304,0.232219152\C,0,-1.6081503411,-1.1842790282,0.521962155
 5\C,0,-1.4966669614,-2.2438350162,-0.5752516226\C,0,-1.3629972122,1.19

 Normal termination of Gaussian 16 at Thu Jul 11 19:11:46 2024.
