 Gaussian 16, Revision A.03,

 -------------------------------------------------------
 # opt=CalcFc B3LYP/6-31G** SCRF=(Solvent=water) scf=xqc
 -------------------------------------------------------

 ----------------------------------
 QOHMWDJIBGVPIF-UHFFFAOYSA-N_conf_4
 ----------------------------------
 Symbolic Z-matrix:
 Charge =  0 Multiplicity = 1

 SCF Done:  E(RB3LYP) =  -387.098423669     A.U. after   11 cycles
 SCF Done:  E(RB3LYP) =  -387.100521569     A.U. after    9 cycles
 SCF Done:  E(RB3LYP) =  -387.100690915     A.U. after    9 cycles
 SCF Done:  E(RB3LYP) =  -387.100705759     A.U. after    8 cycles
 SCF Done:  E(RB3LYP) =  -387.100707721     A.U. after    7 cycles
 SCF Done:  E(RB3LYP) =  -387.100707771     A.U. after    7 cycles
 SCF Done:  E(RB3LYP) =  -387.100707644     A.U. after    7 cycles
 Optimization completed.
    -- Stationary point found.
 Normal termination of Gaussian 16 at Thu Jul 11 18:49:06 2024.

 ----------------------------------------------------------------------
 # freq B3LYP/6-31G** SCRF=(Solvent=water) volume NMR pop=NPA density=c
 urrent Geom=AllCheck Guess=Read
 ----------------------------------------------------------------------

 Structure from the checkpoint file:  "QOHMWDJIBGVPIF-UHFFFAOYSA-N_conf_4_1.chk"
 ----------------------------------
 QOHMWDJIBGVPIF-UHFFFAOYSA-N_conf_4
 ----------------------------------
 Charge =  0 Multiplicity = 1

 SCF Done:  E(RB3LYP) =  -387.100707644     A.U. after    1 cycles

      1  N    Isotropic =   235.3456   Anisotropy =    26.5839

      2  C    Isotropic =   149.5486   Anisotropy =    27.8871

      3  C    Isotropic =   169.2318   Anisotropy =    20.1811

      4  C    Isotropic =   140.8707   Anisotropy =    50.5621

      5  N    Isotropic =   210.7052   Anisotropy =    55.0814

      6  C    Isotropic =   141.1905   Anisotropy =    51.7227

      7  C    Isotropic =   176.7168   Anisotropy =    23.8273

      8  C    Isotropic =   149.8103   Anisotropy =    40.4038

      9  C    Isotropic =   177.7360   Anisotropy =    21.7626

     10  H    Isotropic =    31.3573   Anisotropy =    11.2077

     11  H    Isotropic =    31.0821   Anisotropy =    15.9778

     12  H    Isotropic =    29.1596   Anisotropy =     8.0237

     13  H    Isotropic =    28.9486   Anisotropy =     7.3828

     14  H    Isotropic =    30.0495   Anisotropy =     6.4379

     15  H    Isotropic =    30.3827   Anisotropy =     5.7279

     16  H    Isotropic =    28.8842   Anisotropy =     5.3467

     17  H    Isotropic =    29.0723   Anisotropy =     6.7753

     18  H    Isotropic =    29.0776   Anisotropy =     6.2832

     19  H    Isotropic =    29.2396   Anisotropy =     6.1670

     20  H    Isotropic =    30.5209   Anisotropy =     7.2258

     21  H    Isotropic =    30.8889   Anisotropy =    10.5128

     22  H    Isotropic =    30.9170   Anisotropy =     8.6021

     23  H    Isotropic =    29.2070   Anisotropy =     6.3190

     24  H    Isotropic =    29.1968   Anisotropy =     6.4672

     25  H    Isotropic =    30.4441   Anisotropy =     6.8696

     26  H    Isotropic =    30.9679   Anisotropy =     8.9470

     27  H    Isotropic =    30.8186   Anisotropy =    10.4829

  Exact polarizability: 123.749   0.243 117.045  -1.983   1.715 105.879
 Approx polarizability: 124.131  -0.937 122.352  -1.985   2.243 117.418

                      1                      2                      3
                      A                      A                      A
 Frequencies --     39.2670                46.9258                83.6297
 Red. masses --      2.8912                 2.5590                 1.8636
 Frc consts  --      0.0026                 0.0033                 0.0077
 IR Inten    --      2.4061                 0.3514                 0.2447

                      4                      5                      6
                      A                      A                      A
 Frequencies --     98.1581               136.7487               175.5021
 Red. masses --      2.4491                 2.5419                 1.5340
 Frc consts  --      0.0139                 0.0280                 0.0278
 IR Inten    --      4.6395                 2.2285                12.7046

                      7                      8                      9
                      A                      A                      A
 Frequencies --    219.5981               236.3182               259.7078
 Red. masses --      1.3433                 1.2474                 1.7021
 Frc consts  --      0.0382                 0.0410                 0.0676
 IR Inten    --     27.5270                12.6787                 0.5775

                     10                     11                     12
                      A                      A                      A
 Frequencies --    286.9101               311.0845               329.1011
 Red. masses --      1.5170                 2.0556                 2.2594
 Frc consts  --      0.0736                 0.1172                 0.1442
 IR Inten    --     26.9999                11.8674                 1.5575

                     13                     14                     15
                      A                      A                      A
 Frequencies --    413.4913               441.0887               479.4152
 Red. masses --      2.1265                 2.6873                 2.4584
 Frc consts  --      0.2142                 0.3080                 0.3329
 IR Inten    --      4.1587                 6.3967                 8.3592

                     16                     17                     18
                      A                      A                      A
 Frequencies --    576.6580               756.9277               766.5992
 Red. masses --      2.9536                 1.5170                 1.7146
 Frc consts  --      0.5787                 0.5121                 0.5937
 IR Inten    --     13.0383                 6.1708                 6.7155

                     19                     20                     21
                      A                      A                      A
 Frequencies --    807.0396               814.0730               848.1943
 Red. masses --      1.1784                 1.1670                 1.5913
 Frc consts  --      0.4522                 0.4557                 0.6745
 IR Inten    --      5.4953                 0.3617                51.8944

                     22                     23                     24
                      A                      A                      A
 Frequencies --    903.4862               920.4385               944.6462
 Red. masses --      1.5800                 1.7877                 1.9971
 Frc consts  --      0.7599                 0.8923                 1.0500
 IR Inten    --    141.9344                20.5224                 7.4040

                     25                     26                     27
                      A                      A                      A
 Frequencies --   1001.9866              1017.6725              1076.2053
 Red. masses --      2.2742                 2.1748                 2.5496
 Frc consts  --      1.3452                 1.3271                 1.7399
 IR Inten    --      6.2471                10.7752                19.3998

                     28                     29                     30
                      A                      A                      A
 Frequencies --   1083.8279              1092.4694              1103.4901
 Red. masses --      2.6500                 1.9133                 1.8237
 Frc consts  --      1.8341                 1.3454                 1.3084
 IR Inten    --     25.7354                20.7901                 8.3266

                     31                     32                     33
                      A                      A                      A
 Frequencies --   1114.6516              1153.5723              1182.1721
 Red. masses --      1.8561                 1.7442                 1.5208
 Frc consts  --      1.3587                 1.3675                 1.2522
 IR Inten    --     18.3936                35.4764                20.1889

                     34                     35                     36
                      A                      A                      A
 Frequencies --   1188.4734              1238.8806              1279.1427
 Red. masses --      1.4861                 2.3579                 1.4550
 Frc consts  --      1.2367                 2.1323                 1.4026
 IR Inten    --     28.4842                37.0924                 6.5261

                     37                     38                     39
                      A                      A                      A
 Frequencies --   1323.6433              1328.3450              1337.4708
 Red. masses --      1.1253                 1.1883                 1.3368
 Frc consts  --      1.1616                 1.2353                 1.4089
 IR Inten    --      8.1302                29.6601                 2.6530

                     40                     41                     42
                      A                      A                      A
 Frequencies --   1359.3677              1377.5519              1399.3848
 Red. masses --      1.1356                 1.2514                 1.2819
 Frc consts  --      1.2364                 1.3991                 1.4790
 IR Inten    --      4.0951                11.3488                 8.1068

                     43                     44                     45
                      A                      A                      A
 Frequencies --   1403.5562              1415.5401              1424.1544
 Red. masses --      1.3044                 1.2955                 1.3344
 Frc consts  --      1.5140                 1.5295                 1.5945
 IR Inten    --     23.5042                17.0198                18.4472

                     46                     47                     48
                      A                      A                      A
 Frequencies --   1428.6655              1430.0924              1481.0739
 Red. masses --      1.3814                 1.4096                 1.0860
 Frc consts  --      1.6613                 1.6985                 1.4036
 IR Inten    --     25.9297                15.5337                 0.7283

                     49                     50                     51
                      A                      A                      A
 Frequencies --   1492.1156              1495.6322              1498.3439
 Red. masses --      1.0658                 1.0525                 1.0452
 Frc consts  --      1.3980                 1.3872                 1.3825
 IR Inten    --      5.3839                 1.3072                 5.0575

                     52                     53                     54
                      A                      A                      A
 Frequencies --   1499.7376              1511.8938              1515.1026
 Red. masses --      1.0513                 1.0607                 1.0855
 Frc consts  --      1.3932                 1.4285                 1.4681
 IR Inten    --      0.7072                 4.6519                 1.8892

                     55                     56                     57
                      A                      A                      A
 Frequencies --   1519.7490              1529.0061              1661.5055
 Red. masses --      1.0848                 1.0910                 1.0861
 Frc consts  --      1.4762                 1.5027                 1.7665
 IR Inten    --     10.0785                 1.2250                43.9541

                     58                     59                     60
                      A                      A                      A
 Frequencies --   2935.3971              2940.6729              2952.9067
 Red. masses --      1.0737                 1.0724                 1.0728
 Frc consts  --      5.4508                 5.4640                 5.5117
 IR Inten    --     58.3297               191.3001               122.9402

                     61                     62                     63
                      A                      A                      A
 Frequencies --   3031.8164              3040.2553              3044.6684
 Red. masses --      1.0591                 1.0598                 1.0360
 Frc consts  --      5.7355                 5.7717                 5.6583
 IR Inten    --     24.8440                58.5419                31.9096

                     64                     65                     66
                      A                      A                      A
 Frequencies --   3046.3103              3064.3857              3065.7717
 Red. masses --      1.0376                 1.0935                 1.0881
 Frc consts  --      5.6732                 6.0498                 6.0257
 IR Inten    --     43.2363                18.9520                81.8854

                     67                     68                     69
                      A                      A                      A
 Frequencies --   3068.0187              3079.1488              3089.1152
 Red. masses --      1.0970                 1.0860                 1.1054
 Frc consts  --      6.0835                 6.0667                 6.2149
 IR Inten    --     25.3320                28.1349               120.8360

                     70                     71                     72
                      A                      A                      A
 Frequencies --   3113.5149              3116.7962              3119.6936
 Red. masses --      1.1013                 1.1021                 1.1029
 Frc consts  --      6.2899                 6.3077                 6.3244
 IR Inten    --     60.1703                44.7118                74.0341

                     73                     74                     75
                      A                      A                      A
 Frequencies --   3121.3998              3487.7751              3561.6400
 Red. masses --      1.1026                 1.0510                 1.0913
 Frc consts  --      6.3296                 7.5327                 8.1560
 IR Inten    --     75.2892                 0.8542                 0.0182

 - Thermochemistry -
 -------------------
 Temperature   298.150 Kelvin.  Pressure   1.00000 Atm.
 Atom     1 has atomic number  7 and mass  14.00307

 Molecular mass:   130.14700 amu.
 Principal axes and moments of inertia in atomic units:
                           1         2         3
     Eigenvalues --   864.718102174.086972777.75837
           X            0.99993   0.01112  -0.00330
           Y           -0.01113   0.99994  -0.00155
           Z            0.00328   0.00159   0.99999
 This molecule is an asymmetric top.
 Rotational symmetry number  1.
 Warning -- assumption of classical behavior for rotation
           may cause significant error
 Rotational temperatures (Kelvin)      0.10016     0.03984     0.03118
 Rotational constants (GHZ):           2.08709     0.83011     0.64971
 Zero-point vibrational energy     662365.0 (Joules/Mol)
                                  158.30902 (Kcal/Mol)
 Warning -- explicit consideration of  16 degrees of freedom as
           vibrations may cause significant error
 Vibrational temperatures:     56.50    67.52   120.32   141.23   196.75
          (Kelvin)            252.51   315.95   340.01   373.66   412.80
                              447.58   473.50   594.92   634.63   689.77
                              829.68  1089.05  1102.97  1161.15  1171.27
                             1220.36  1299.92  1324.31  1359.14  1441.64
                             1464.20  1548.42  1559.39  1571.82  1587.68
                             1603.74  1659.73  1700.88  1709.95  1782.47
                             1840.40  1904.43  1911.19  1924.32  1955.83
                             1981.99  2013.40  2019.40  2036.65  2049.04
                             2055.53  2057.58  2130.94  2146.82  2151.88
                             2155.78  2157.79  2175.28  2179.89  2186.58
                             2199.90  2390.54  4223.38  4230.97  4248.57
                             4362.11  4374.25  4380.60  4382.96  4408.97
                             4410.96  4414.19  4430.21  4444.55  4479.65
                             4484.37  4488.54  4491.00  5018.13  5124.41

 Zero-point correction=                           0.252281 (Hartree/Particle)
 Thermal correction to Energy=                    0.264264
 Thermal correction to Enthalpy=                  0.265208
 Thermal correction to Gibbs Free Energy=         0.213767
 Sum of electronic and zero-point Energies=           -386.848426
 Sum of electronic and thermal Energies=              -386.836443
 Sum of electronic and thermal Enthalpies=            -386.835499
 Sum of electronic and thermal Free Energies=         -386.886941

                     E (Thermal)             CV                S
                      KCal/Mol        Cal/Mol-Kelvin    Cal/Mol-Kelvin
 Total                  165.828             42.927            108.268
 Electronic               0.000              0.000              0.000
 Translational            0.889              2.981             40.503
 Rotational               0.889              2.981             30.036
 Vibrational            164.051             36.965             37.729
 Vibration     1          0.594              1.981              5.296
 Vibration     2          0.595              1.979              4.943
 Vibration     3          0.601              1.960              3.804
 Vibration     4          0.604              1.950              3.491
 Vibration     5          0.614              1.917              2.849
 Vibration     6          0.627              1.873              2.376
 Vibration     7          0.647              1.811              1.962
 Vibration     8          0.655              1.785              1.830
 Vibration     9          0.668              1.746              1.664
 Vibration    10          0.684              1.698              1.492
 Vibration    11          0.700              1.653              1.357
 Vibration    12          0.712              1.617              1.264
 Vibration    13          0.777              1.441              0.914
 Vibration    14          0.801              1.381              0.823
 Vibration    15          0.836              1.296              0.712
 Vibration    16          0.933              1.082              0.492

 Optimization completed.
    -- Stationary point found.
 Normal termination of Gaussian 16 at Thu Jul 11 19:15:43 2024.
 Gaussian 16:  EM64L-G16RevA.03 25-Dec-2016

 ----------------------------------------------------------------------
 # TD(NStates=10, Root=1) B3LYP/6-31G** SCRF=(Solvent=water) volume pop
 =NPA density=current Geom=AllCheck Guess=Read
 ----------------------------------------------------------------------

 Structure from the checkpoint file:  "QOHMWDJIBGVPIF-UHFFFAOYSA-N_conf_4_2.chk"
 ----------------------------------
 QOHMWDJIBGVPIF-UHFFFAOYSA-N_conf_4
 ----------------------------------
 Charge =  0 Multiplicity = 1

                         Standard orientation:
 ---------------------------------------------------------------------
 Center     Atomic      Atomic             Coordinates (Angstroms)
 Number     Number       Type             X           Y           Z
 ---------------------------------------------------------------------
      1          7           0        3.404186   -0.836454   -0.394042
      2          6           0        2.860956    0.317661    0.344472
      3          6           0        1.380465    0.128565    0.695135
      4          6           0        0.464860    0.095146   -0.544870
      5          7           0       -0.979227   -0.056892   -0.314298
      6          6           0       -1.330496   -1.363125    0.260796
      7          6           0       -2.743273   -1.821001   -0.111684
      8          6           0       -1.598816    1.056277    0.415411
      9          6           0       -1.541119    2.388793   -0.333346
     10          1           0        3.064088   -0.813459   -1.353440
     11          1           0        4.413325   -0.727136   -0.474593
     12          1           0        3.433518    0.410691    1.274358
     13          1           0        2.982701    1.275071   -0.192434
     14          1           0        1.079874    0.951227    1.355272
     15          1           0        1.269986   -0.800318    1.267471
     16          1           0        0.625703    1.010841   -1.126811
     17          1           0        0.767555   -0.735965   -1.193345
     18          1           0       -1.218697   -1.377196    1.360612
     19          1           0       -0.615769   -2.097272   -0.127520
     20          1           0       -3.514770   -1.154970    0.286872
     21          1           0       -2.934586   -2.820660    0.292732
     22          1           0       -2.859412   -1.859808   -1.199278
     23          1           0       -1.169056    1.182925    1.426682
     24          1           0       -2.650800    0.796852    0.569496
     25          1           0       -0.521160    2.774851   -0.421435
     26          1           0       -1.952778    2.282245   -1.342225
     27          1           0       -2.129896    3.141606    0.200479
 ---------------------------------------------------------------------

 SCF Done:  E(RB3LYP) =  -387.100707644     A.U. after    1 cycles

 Excitation energies and oscillator strengths:

 Excited State   1:      Singlet-A      6.7101 eV  184.77 nm  f=0.0196  <S**2>=0.000
      37 -> 38         0.67908
      37 -> 39         0.18598
 This state for optimization and/or second-order correction.
 Total Energy, E(TD-HF/TD-DFT) =  -386.854116127
 Copying the excited state density for this state as the 1-particle RhoCI density.

 Excited State   2:      Singlet-A      7.1940 eV  172.34 nm  f=0.0171  <S**2>=0.000
      37 -> 38        -0.15331
      37 -> 39         0.60769
      37 -> 40        -0.31501

 Excited State   3:      Singlet-A      7.3482 eV  168.73 nm  f=0.0163  <S**2>=0.000
      36 -> 38         0.62809
      36 -> 39        -0.23132
      36 -> 40        -0.13716
      37 -> 40        -0.16832

 Excited State   4:      Singlet-A      7.4084 eV  167.36 nm  f=0.0167  <S**2>=0.000
      36 -> 38         0.15765
      37 -> 38        -0.10745
      37 -> 39         0.29737
      37 -> 40         0.60044

 Excited State   5:      Singlet-A      7.7295 eV  160.40 nm  f=0.0163  <S**2>=0.000
      37 -> 41         0.65916
      37 -> 42         0.21358

 Excited State   6:      Singlet-A      7.8775 eV  157.39 nm  f=0.0607  <S**2>=0.000
      37 -> 41        -0.20431
      37 -> 42         0.66683

 Excited State   7:      Singlet-A      8.3101 eV  149.20 nm  f=0.0657  <S**2>=0.000
      37 -> 43         0.69144

 Excited State   8:      Singlet-A      8.3412 eV  148.64 nm  f=0.0275  <S**2>=0.000
      36 -> 38         0.27609
      36 -> 39         0.55436
      36 -> 40         0.30889
      36 -> 42         0.11481

 Excited State   9:      Singlet-A      8.4550 eV  146.64 nm  f=0.0236  <S**2>=0.000
      36 -> 39        -0.30622
      36 -> 40         0.53781
      36 -> 41        -0.28265
      36 -> 43         0.13053

 Excited State  10:      Singlet-A      8.5346 eV  145.27 nm  f=0.0446  <S**2>=0.000
      37 -> 44         0.60420
      37 -> 45        -0.10447
      37 -> 46        -0.27354
      37 -> 48        -0.17606

 The electronic state is 1-A.
 Alpha  occ. eigenvalues --  -14.31566 -14.30906 -10.20275 -10.20135 -10.20061
 Alpha  occ. eigenvalues --  -10.19918 -10.17174 -10.17112 -10.17002  -0.90940
 Alpha  occ. eigenvalues --   -0.87290  -0.75802  -0.75312  -0.71226  -0.65392
 Alpha  occ. eigenvalues --   -0.61583  -0.58986  -0.54457  -0.49055  -0.47915
 Alpha  occ. eigenvalues --   -0.45953  -0.45365  -0.44402  -0.42282  -0.40700
 Alpha  occ. eigenvalues --   -0.39271  -0.38028  -0.37120  -0.36186  -0.35546
 Alpha  occ. eigenvalues --   -0.34669  -0.33812  -0.33412  -0.32572  -0.31825
 Alpha  occ. eigenvalues --   -0.23710  -0.20208
 Alpha virt. eigenvalues --    0.07815   0.09766   0.10492   0.12030   0.12400
 Alpha virt. eigenvalues --    0.13849   0.14818   0.15139   0.16012   0.17000
 Alpha virt. eigenvalues --    0.17028   0.18040   0.18870   0.19133   0.20094

 Mulliken charges:
               1
     1  N   -0.579284
     2  C   -0.033595
     3  C   -0.114943
     4  C    0.007209
     5  N   -0.232019
     6  C   -0.041998
     7  C   -0.330313
     8  C   -0.002499
     9  C   -0.294753
    10  H    0.138350
    11  H    0.160273
    12  H    0.080084
    13  H    0.031944
    14  H    0.020206
    15  H    0.069311
    16  H    0.065113
    17  H    0.027692
    18  H    0.151382
    19  H    0.105945
    20  H    0.113422
    21  H    0.122875
    22  H    0.127408
    23  H    0.110128
    24  H    0.056405
    25  H    0.047717
    26  H    0.102289
    27  H    0.091650
 Sum of Mulliken charges =   0.00000

 Dipole moment (field-independent basis, Debye):
    X=             -4.8595    Y=             -0.0856    Z=              0.2748  Tot=              4.8681
 Quadrupole moment (field-independent basis, Debye-Ang):
   XX=            -66.4721   YY=            -64.8309   ZZ=            -60.4723
   XY=              7.2260   XZ=             -0.7883   YZ=             -0.3465

 Summary of Natural Population Analysis:

                                       Natural Population
                Natural  -----------------------------------------------
    Atom  No    Charge         Core      Valence    Rydberg      Total
 -----------------------------------------------------------------------
      N    1   -0.93947      1.99967     5.92326    0.01654     7.93947
      C    2   -0.26560      1.99936     4.25109    0.01515     6.26560
      C    3   -0.47649      1.99927     4.46475    0.01247     6.47649
      C    4   -0.32011      1.99927     4.30057    0.02026     6.32011
      N    5   -0.03044      1.99933     5.02229    0.00883     7.03044
      C    6   -0.31622      1.99931     4.30192    0.01499     6.31622
      C    7   -0.70712      1.99945     4.69816    0.00952     6.70712
      C    8   -0.31799      1.99929     4.30245    0.01625     6.31799
      C    9   -0.71517      1.99945     4.70515    0.01058     6.71517
      H   10    0.30293      0.00000     0.66299    0.03407     0.69707
      H   11    0.32112      0.00000     0.65546    0.02343     0.67888
      H   12    0.22047      0.00000     0.76987    0.00966     0.77953
      H   13    0.16756      0.00000     0.81145    0.02099     0.83244
      H   14    0.17492      0.00000     0.79211    0.03296     0.82508
      H   15    0.21729      0.00000     0.76599    0.01672     0.78271
      H   16    0.20998      0.00000     0.76029    0.02973     0.79002
      H   17    0.17472      0.00000     0.78692    0.03835     0.82528
      H   18    0.26494      0.00000     0.72105    0.01400     0.73506
      H   19    0.23362      0.00000     0.74721    0.01917     0.76638
      H   20    0.22860      0.00000     0.76321    0.00819     0.77140
      H   21    0.24832      0.00000     0.74676    0.00492     0.75168
      H   22    0.24266      0.00000     0.75344    0.00389     0.75734
      H   23    0.23990      0.00000     0.73247    0.02763     0.76010
      H   24    0.19613      0.00000     0.77589    0.02799     0.80387
      H   25    0.18533      0.00000     0.78756    0.02711     0.81467
      H   26    0.23007      0.00000     0.76195    0.00798     0.76993
      H   27    0.23007      0.00000     0.76002    0.00991     0.76993
 =======================================================================
   * Total *    0.00000     17.99440    55.52430    0.48130    74.00000

 1\1\GINC-CN34\SP\RB3LYP TD-FC\6-31G(d,p)\C7H18N2\QDUEZ\11-Jul-2024\0\\
 # TD(NStates=10, Root=1) B3LYP/6-31G** SCRF=(Solvent=water) volume pop
 =NPA density=current Geom=AllCheck Guess=Read\\QOHMWDJIBGVPIF-UHFFFAOY
 SA-N_conf_4\\0,1\N,0,3.4817764961,0.9681527772,0.0327806541\C,0,2.9364
 19438,-0.3995294102,0.0999751017\C,0,1.4856493037,-0.4630188506,-0.391
 7659454\C,0,0.5053322562,0.3065724227,0.5158534227\N,0,-0.9171114753,0
 .2857369442,0.1445228667\C,0,-1.18642103,0.983154245,-1.1209611142\C,0
 ,-2.5990851635,1.5692832915,-1.1928119639\C,0,-1.5375836498,-1.0441268

 Normal termination of Gaussian 16 at Thu Jul 11 19:42:08 2024.
