 Gaussian 16, Revision A.03,

 -------------------------------------------------------
 # opt=CalcFc B3LYP/6-31G** SCRF=(Solvent=water) scf=xqc
 -------------------------------------------------------

 ----------------------------------
 OXEZLYIDQPBCBB-UHFFFAOYSA-N_conf_4
 ----------------------------------
 Symbolic Z-matrix:
 Charge =  0 Multiplicity = 1

 SCF Done:  E(RB3LYP) =  -620.572240245     A.U. after   11 cycles
 SCF Done:  E(RB3LYP) =  -620.575056549     A.U. after    9 cycles
 SCF Done:  E(RB3LYP) =  -620.575521705     A.U. after    9 cycles
 SCF Done:  E(RB3LYP) =  -620.575581137     A.U. after    8 cycles
 SCF Done:  E(RB3LYP) =  -620.575588670     A.U. after    7 cycles
 SCF Done:  E(RB3LYP) =  -620.575590723     A.U. after    7 cycles
 SCF Done:  E(RB3LYP) =  -620.575591008     A.U. after    7 cycles
 SCF Done:  E(RB3LYP) =  -620.575591025     A.U. after    6 cycles
 Optimization completed.
    -- Stationary point found.
 Normal termination of Gaussian 16 at Thu Jul 18 16:55:29 2024.

 ----------------------------------------------------------------------
 # freq B3LYP/6-31G** SCRF=(Solvent=water) volume NMR pop=NPA density=c
 urrent Geom=AllCheck Guess=Read
 ----------------------------------------------------------------------

 Structure from the checkpoint file:  "OXEZLYIDQPBCBB-UHFFFAOYSA-N_conf_4_1.chk"
 ----------------------------------
 OXEZLYIDQPBCBB-UHFFFAOYSA-N_conf_4
 ----------------------------------
 Charge =  0 Multiplicity = 1

 SCF Done:  E(RB3LYP) =  -620.575591025     A.U. after    1 cycles

      1  C    Isotropic =   164.5305   Anisotropy =     5.7061

      2  C    Isotropic =   159.1922   Anisotropy =    31.4169

      3  C    Isotropic =   169.3221   Anisotropy =    19.0265

      4  C    Isotropic =   164.8978   Anisotropy =    23.1698

      5  C    Isotropic =   161.8625   Anisotropy =     5.7247

      6  C    Isotropic =   163.0903   Anisotropy =    11.5003

      7  C    Isotropic =   149.5081   Anisotropy =    38.2900

      8  N    Isotropic =   217.2194   Anisotropy =    58.0535

      9  C    Isotropic =   148.6986   Anisotropy =    36.4696

     10  C    Isotropic =   156.4911   Anisotropy =    14.8776

     11  C    Isotropic =   158.7115   Anisotropy =    23.9905

     12  C    Isotropic =   150.2677   Anisotropy =    32.5679

     13  N    Isotropic =   234.1646   Anisotropy =    47.0409

     14  C    Isotropic =   147.4152   Anisotropy =    34.9357

     15  C    Isotropic =   165.4128   Anisotropy =    13.7067

     16  H    Isotropic =    29.9071   Anisotropy =     7.9716

     17  H    Isotropic =    30.8537   Anisotropy =     7.2792

     18  H    Isotropic =    30.2001   Anisotropy =     5.4294

     19  H    Isotropic =    30.2384   Anisotropy =     7.6997

     20  H    Isotropic =    30.1191   Anisotropy =     7.5092

     21  H    Isotropic =    29.7569   Anisotropy =     6.8030

     22  H    Isotropic =    30.3758   Anisotropy =     6.0290

     23  H    Isotropic =    29.7359   Anisotropy =     7.9251

     24  H    Isotropic =    30.1771   Anisotropy =     6.0808

     25  H    Isotropic =    30.4056   Anisotropy =     8.1773

     26  H    Isotropic =    29.0173   Anisotropy =     5.9997

     27  H    Isotropic =    29.2412   Anisotropy =     9.4449

     28  H    Isotropic =    31.5517   Anisotropy =    12.8341

     29  H    Isotropic =    29.2087   Anisotropy =     9.5145

     30  H    Isotropic =    28.9944   Anisotropy =     6.1842

     31  H    Isotropic =    30.1064   Anisotropy =     8.1143

     32  H    Isotropic =    30.5741   Anisotropy =     6.8554

     33  H    Isotropic =    30.1924   Anisotropy =     7.5871

     34  H    Isotropic =    30.8639   Anisotropy =     6.5975

     35  H    Isotropic =    29.2913   Anisotropy =     8.9762

     36  H    Isotropic =    29.0923   Anisotropy =     9.8188

     37  H    Isotropic =    31.2196   Anisotropy =    13.0315

     38  H    Isotropic =    28.8892   Anisotropy =     9.8695

     39  H    Isotropic =    29.0551   Anisotropy =     8.2816

     40  H    Isotropic =    30.8360   Anisotropy =     7.9873

     41  H    Isotropic =    30.1303   Anisotropy =     6.1665

  Exact polarizability: 198.148  -0.919 188.164   3.330   0.660 184.598
 Approx polarizability: 200.938  -2.319 204.269   4.146  -0.490 202.823

                      1                      2                      3
                      A                      A                      A
 Frequencies --     22.7076                24.2935                37.7941
 Red. masses --      3.5584                 3.7043                 3.0913
 Frc consts  --      0.0011                 0.0013                 0.0026
 IR Inten    --      0.1604                 0.6034                 0.5656

                      4                      5                      6
                      A                      A                      A
 Frequencies --     79.0541               106.2506               133.4211
 Red. masses --      3.0742                 2.8099                 3.1788
 Frc consts  --      0.0113                 0.0187                 0.0333
 IR Inten    --      0.1071                 1.1700                 0.9352

                      7                      8                      9
                      A                      A                      A
 Frequencies --    147.9054               207.6677               224.7639
 Red. masses --      2.1190                 2.3252                 2.2189
 Frc consts  --      0.0273                 0.0591                 0.0660
 IR Inten    --      0.0859                 0.0416                 1.0341

                     10                     11                     12
                      A                      A                      A
 Frequencies --    268.4055               279.0154               315.1180
 Red. masses --      1.9913                 2.2044                 2.0169
 Frc consts  --      0.0845                 0.1011                 0.1180
 IR Inten    --      9.1698                 1.8466                 3.3316

                     13                     14                     15
                      A                      A                      A
 Frequencies --    342.1977               379.1985               400.4931
 Red. masses --      2.1709                 2.1402                 1.8505
 Frc consts  --      0.1498                 0.1813                 0.1749
 IR Inten    --      2.9557                 2.7540                 4.8406

                     16                     17                     18
                      A                      A                      A
 Frequencies --    403.7020               429.6068               475.8995
 Red. masses --      2.1754                 2.4648                 2.6126
 Frc consts  --      0.2089                 0.2680                 0.3486
 IR Inten    --      1.2982                 1.0052                 1.1065

                     19                     20                     21
                      A                      A                      A
 Frequencies --    502.7536               513.1744               537.9286
 Red. masses --      2.9349                 3.6206                 2.8666
 Frc consts  --      0.4371                 0.5618                 0.4887
 IR Inten    --      2.1296                 1.9122                 0.2288

                     22                     23                     24
                      A                      A                      A
 Frequencies --    619.1108               630.4589               713.8382
 Red. masses --      1.6373                 1.9568                 1.6174
 Frc consts  --      0.3698                 0.4583                 0.4856
 IR Inten    --      0.1459                 5.0131                10.5590

                     25                     26                     27
                      A                      A                      A
 Frequencies --    772.7201               796.1639               803.9315
 Red. masses --      1.9151                 1.7594                 2.0257
 Frc consts  --      0.6737                 0.6571                 0.7714
 IR Inten    --     15.9226               183.0501                49.4875

                     28                     29                     30
                      A                      A                      A
 Frequencies --    806.9959               820.4860               824.7386
 Red. masses --      1.5978                 2.0814                 1.7793
 Frc consts  --      0.6131                 0.8256                 0.7131
 IR Inten    --      5.8402                 7.8109                62.9912

                     31                     32                     33
                      A                      A                      A
 Frequencies --    856.9517               873.3479               874.9588
 Red. masses --      2.2768                 2.4857                 1.8436
 Frc consts  --      0.9851                 1.1170                 0.8315
 IR Inten    --      1.0880                 0.5663                59.1432

                     34                     35                     36
                      A                      A                      A
 Frequencies --    908.6559               925.0380               947.1470
 Red. masses --      2.1143                 2.1746                 1.5678
 Frc consts  --      1.0285                 1.0963                 0.8286
 IR Inten    --      8.6322                10.0643                 7.1003

                     37                     38                     39
                      A                      A                      A
 Frequencies --    956.9137               963.2391               983.4399
 Red. masses --      1.7691                 1.7716                 1.8249
 Frc consts  --      0.9544                 0.9685                 1.0399
 IR Inten    --      5.6962                28.1370                 2.7126

                     40                     41                     42
                      A                      A                      A
 Frequencies --    989.4171              1013.5595              1015.8817
 Red. masses --      1.6309                 2.0355                 2.0987
 Frc consts  --      0.9407                 1.2320                 1.2761
 IR Inten    --     18.5950                 5.2160                13.0788

                     43                     44                     45
                      A                      A                      A
 Frequencies --   1030.8243              1052.1156              1072.1434
 Red. masses --      1.8647                 2.1347                 2.1687
 Frc consts  --      1.1674                 1.3923                 1.4688
 IR Inten    --      4.5335                 1.3855                 0.8025

                     46                     47                     48
                      A                      A                      A
 Frequencies --   1083.3593              1106.8486              1112.7541
 Red. masses --      1.8592                 2.7680                 2.5810
 Frc consts  --      1.2856                 1.9980                 1.8829
 IR Inten    --      9.1159                17.0316                 5.7866

                     49                     50                     51
                      A                      A                      A
 Frequencies --   1120.8055              1136.7858              1139.5036
 Red. masses --      2.7071                 1.8953                 1.5194
 Frc consts  --      2.0036                 1.4430                 1.1624
 IR Inten    --     21.5000                23.4474                13.6164

                     52                     53                     54
                      A                      A                      A
 Frequencies --   1161.8434              1176.0156              1185.7069
 Red. masses --      1.1003                 1.7114                 1.6845
 Frc consts  --      0.8751                 1.3945                 1.3953
 IR Inten    --      1.4683                 2.5963                 1.3798

                     55                     56                     57
                      A                      A                      A
 Frequencies --   1211.4313              1221.5668              1234.2313
 Red. masses --      1.4509                 1.5296                 1.3814
 Frc consts  --      1.2545                 1.3448                 1.2399
 IR Inten    --     12.7265                15.1270                 2.7821

                     58                     59                     60
                      A                      A                      A
 Frequencies --   1265.4363              1270.1171              1288.9123
 Red. masses --      1.2362                 1.2571                 1.2522
 Frc consts  --      1.1664                 1.1949                 1.2256
 IR Inten    --      4.3153                11.6917                15.3534

                     61                     62                     63
                      A                      A                      A
 Frequencies --   1305.4099              1320.6872              1329.0207
 Red. masses --      1.3097                 1.2464                 1.3522
 Frc consts  --      1.3150                 1.2809                 1.4072
 IR Inten    --      8.3010                 2.9811                 1.9688

                     64                     65                     66
                      A                      A                      A
 Frequencies --   1339.3507              1340.5897              1349.2486
 Red. masses --      1.3053                 1.2454                 1.2641
 Frc consts  --      1.3796                 1.3187                 1.3558
 IR Inten    --      2.1756                 0.4680                 0.1898

                     67                     68                     69
                      A                      A                      A
 Frequencies --   1362.0392              1363.1723              1368.9454
 Red. masses --      1.2775                 1.3453                 1.2399
 Frc consts  --      1.3963                 1.4729                 1.3690
 IR Inten    --      3.6184                12.2601                 6.4665

                     70                     71                     72
                      A                      A                      A
 Frequencies --   1370.5110              1382.9231              1388.0088
 Red. masses --      1.2807                 1.3946                 1.4001
 Frc consts  --      1.4173                 1.5715                 1.5893
 IR Inten    --      3.3080                10.9508                 4.2632

                     73                     74                     75
                      A                      A                      A
 Frequencies --   1393.5030              1401.0486              1403.3942
 Red. masses --      1.3835                 1.4268                 1.3823
 Frc consts  --      1.5829                 1.6501                 1.6040
 IR Inten    --      3.2713                 0.6011                10.7449

                     76                     77                     78
                      A                      A                      A
 Frequencies --   1408.7128              1411.4090              1420.5853
 Red. masses --      1.3757                 1.4506                 1.4315
 Frc consts  --      1.6085                 1.7026                 1.7021
 IR Inten    --      4.2840                 8.2009                 0.9594

                     79                     80                     81
                      A                      A                      A
 Frequencies --   1474.2210              1487.1903              1488.6888
 Red. masses --      1.1012                 1.0999                 1.1017
 Frc consts  --      1.4101                 1.4333                 1.4385
 IR Inten    --     10.6016                 2.7960                16.8370

                     82                     83                     84
                      A                      A                      A
 Frequencies --   1490.8773              1493.6267              1495.0738
 Red. masses --      1.0865                 1.1116                 1.1218
 Frc consts  --      1.4228                 1.4611                 1.4773
 IR Inten    --      3.5106                 5.9471                10.0980

                     85                     86                     87
                      A                      A                      A
 Frequencies --   1497.2767              1497.6518              1501.8239
 Red. masses --      1.0844                 1.0975                 1.1167
 Frc consts  --      1.4323                 1.4503                 1.4839
 IR Inten    --      1.3323                 0.9437                 4.1064

                     88                     89                     90
                      A                      A                      A
 Frequencies --   1502.7333              1506.4317              1511.5436
 Red. masses --      1.1022                 1.1009                 1.0957
 Frc consts  --      1.4665                 1.4720                 1.4750
 IR Inten    --      4.9014                 2.3526                 4.1930

                     91                     92                     93
                      A                      A                      A
 Frequencies --   1513.8892              3005.5753              3011.1370
 Red. masses --      1.0949                 1.0772                 1.0661
 Frc consts  --      1.4785                 5.7335                 5.6951
 IR Inten    --      3.6900                20.3310                 7.4890

                     94                     95                     96
                      A                      A                      A
 Frequencies --   3013.1140              3015.1872              3017.2927
 Red. masses --      1.0653                 1.0680                 1.0677
 Frc consts  --      5.6986                 5.7208                 5.7274
 IR Inten    --     40.5937               101.1214                33.5777

                     97                     98                     99
                      A                      A                      A
 Frequencies --   3020.1668              3025.0860              3026.0998
 Red. masses --      1.0614                 1.0617                 1.0626
 Frc consts  --      5.7040                 5.7243                 5.7331
 IR Inten    --     74.0335                52.9643                34.5655

                    100                    101                    102
                      A                      A                      A
 Frequencies --   3027.6927              3029.6963              3031.4168
 Red. masses --      1.0672                 1.0716                 1.0667
 Frc consts  --      5.7640                 5.7953                 5.7752
 IR Inten    --    145.8832                67.8423                17.7228

                    103                    104                    105
                      A                      A                      A
 Frequencies --   3036.8680              3038.2677              3048.8641
 Red. masses --      1.0683                 1.0683                 1.0983
 Frc consts  --      5.8049                 5.8104                 6.0152
 IR Inten    --     30.2229                83.7519                46.4743

                    106                    107                    108
                      A                      A                      A
 Frequencies --   3057.8122              3060.0384              3063.5976
 Red. masses --      1.0990                 1.1006                 1.0980
 Frc consts  --      6.0545                 6.0719                 6.0719
 IR Inten    --     89.4534                66.9042               110.0610

                    109                    110                    111
                      A                      A                      A
 Frequencies --   3067.3763              3070.3400              3072.0493
 Red. masses --      1.1001                 1.0953                 1.0972
 Frc consts  --      6.0982                 6.0835                 6.1007
 IR Inten    --    128.3553                97.5900               102.1809

                    112                    113                    114
                      A                      A                      A
 Frequencies --   3075.8257              3077.6658              3083.0281
 Red. masses --      1.1039                 1.1035                 1.1041
 Frc consts  --      6.1535                 6.1582                 6.1833
 IR Inten    --     14.7619               117.2497               112.6032

                    115                    116                    117
                      A                      A                      A
 Frequencies --   3088.4192              3474.9411              3503.7795
 Red. masses --      1.0991                 1.0736                 1.0745
 Frc consts  --      6.1768                 7.6384                 7.7718
 IR Inten    --    107.6911                 2.3788                 0.7972

 - Thermochemistry -
 -------------------
 Temperature   298.150 Kelvin.  Pressure   1.00000 Atm.
 Atom     1 has atomic number  6 and mass  12.00000

 Molecular mass:   210.20960 amu.
 Principal axes and moments of inertia in atomic units:
                           1         2         3
     Eigenvalues --  1340.763187913.488768175.42380
           X            1.00000  -0.00253   0.00120
           Y            0.00252   0.99993   0.01125
           Z           -0.00123  -0.01124   0.99994
 This molecule is an asymmetric top.
 Rotational symmetry number  1.
 Warning -- assumption of classical behavior for rotation
           may cause significant error
 Rotational temperatures (Kelvin)      0.06460     0.01095     0.01059
 Rotational constants (GHZ):           1.34606     0.22806     0.22075
 Zero-point vibrational energy    1010603.3 (Joules/Mol)
                                  241.53998 (Kcal/Mol)
 Warning -- explicit consideration of  22 degrees of freedom as
           vibrations may cause significant error
 Vibrational temperatures:     32.67    34.95    54.38   113.74   152.87
          (Kelvin)            191.96   212.80   298.79   323.39   386.18
                              401.44   453.38   492.35   545.58   576.22
                              580.84   618.11   684.71   723.35   738.34
                              773.96   890.76   907.09  1027.05  1111.77
                             1145.50  1156.68  1161.09  1180.50  1186.61
                             1232.96  1256.55  1258.87  1307.35  1330.92
                             1362.73  1376.79  1385.89  1414.95  1423.55
                             1458.29  1461.63  1483.13  1513.76  1542.58
                             1558.71  1592.51  1601.01  1612.59  1635.58
                             1639.49  1671.63  1692.02  1705.97  1742.98
                             1757.56  1775.78  1820.68  1827.42  1854.46
                             1878.19  1900.17  1912.16  1927.03  1928.81
                             1941.27  1959.67  1961.30  1969.61  1971.86
                             1989.72  1997.04  2004.94  2015.80  2019.17
                             2026.82  2030.70  2043.91  2121.08  2139.74
                             2141.89  2145.04  2149.00  2151.08  2154.25
                             2154.79  2160.79  2162.10  2167.42  2174.77
                             2178.15  4324.35  4332.35  4335.20  4338.18
                             4341.21  4345.35  4352.42  4353.88  4356.17
                             4359.06  4361.53  4369.38  4371.39  4386.64
                             4399.51  4402.71  4407.83  4413.27  4417.53
                             4419.99  4425.43  4428.07  4435.79  4443.55
                             4999.67  5041.16

 Zero-point correction=                           0.384918 (Hartree/Particle)
 Thermal correction to Energy=                    0.400082
 Thermal correction to Enthalpy=                  0.401027
 Thermal correction to Gibbs Free Energy=         0.340740
 Sum of electronic and zero-point Energies=           -620.190673
 Sum of electronic and thermal Energies=              -620.175509
 Sum of electronic and thermal Enthalpies=            -620.174564
 Sum of electronic and thermal Free Energies=         -620.234851

                     E (Thermal)             CV                S
                      KCal/Mol        Cal/Mol-Kelvin    Cal/Mol-Kelvin
 Total                  251.055             60.156            126.883
 Electronic               0.000              0.000              0.000
 Translational            0.889              2.981             41.933
 Rotational               0.889              2.981             32.828
 Vibrational            249.278             54.195             52.122
 Vibration     1          0.593              1.985              6.382
 Vibration     2          0.593              1.985              6.248
 Vibration     3          0.594              1.982              5.371
 Vibration     4          0.600              1.963              3.914
 Vibration     5          0.605              1.944              3.336
 Vibration     6          0.613              1.920              2.896
 Vibration     7          0.617              1.905              2.699
 Vibration     8          0.641              1.829              2.064
 Vibration     9          0.649              1.803              1.920
 Vibration    10          0.673              1.731              1.606
 Vibration    11          0.679              1.712              1.540
 Vibration    12          0.702              1.645              1.335
 Vibration    13          0.721              1.591              1.202
 Vibration    14          0.749              1.514              1.042
 Vibration    15          0.766              1.469              0.961
 Vibration    16          0.769              1.462              0.949
 Vibration    17          0.791              1.406              0.860
 Vibration    18          0.833              1.304              0.721
 Vibration    19          0.858              1.244              0.651
 Vibration    20          0.868              1.221              0.626
 Vibration    21          0.893              1.166              0.570
 Vibration    22          0.979              0.992              0.418

 Optimization completed on the basis of negligible forces.
    -- Stationary point found.
 Normal termination of Gaussian 16 at Thu Jul 18 17:25:01 2024.
 Gaussian 16:  ES64L-G16RevA.03 25-Dec-2016

 ----------------------------------------------------------------------
 # TD(NStates=10, Root=1) B3LYP/6-31G** SCRF=(Solvent=water) volume pop
 =NPA density=current Geom=AllCheck Guess=Read
 ----------------------------------------------------------------------

 Structure from the checkpoint file:  "OXEZLYIDQPBCBB-UHFFFAOYSA-N_conf_4_2.chk"
 ----------------------------------
 OXEZLYIDQPBCBB-UHFFFAOYSA-N_conf_4
 ----------------------------------
 Charge =  0 Multiplicity = 1

                         Standard orientation:
 ---------------------------------------------------------------------
 Center     Atomic      Atomic             Coordinates (Angstroms)
 Number     Number       Type             X           Y           Z
 ---------------------------------------------------------------------
      1          6           0        1.999198   -0.388204   -0.077028
      2          6           0        0.933464   -1.496541   -0.010610
      3          6           0       -0.186482   -1.310536    1.029939
      4          6           0       -1.051204   -0.044028    0.880979
      5          6           0       -1.785359    0.124915   -0.468299
      6          6           0       -2.800868   -1.000357   -0.774128
      7          6           0       -4.078772   -0.883009    0.074137
      8          7           0       -4.740294    0.428843   -0.016111
      9          6           0       -3.802706    1.523597    0.281809
     10          6           0       -2.512016    1.487441   -0.555080
     11          6           0        2.942070   -0.605116   -1.286461
     12          6           0        4.282160    0.160369   -1.124917
     13          7           0        4.189124    1.341586   -0.257661
     14          6           0        3.791306    0.966460    1.114010
     15          6           0        2.846821   -0.262290    1.198737
     16          1           0        1.483732    0.571580   -0.225964
     17          1           0        1.439291   -2.450918    0.193531
     18          1           0        0.488113   -1.607468   -1.008584
     19          1           0       -0.829997   -2.198701    0.998368
     20          1           0        0.249477   -1.305569    2.036886
     21          1           0       -1.774069   -0.032687    1.706014
     22          1           0       -0.421441    0.842402    1.033916
     23          1           0       -1.023228    0.111002   -1.258470
     24          1           0       -2.348348   -1.989236   -0.633745
     25          1           0       -3.083808   -0.938137   -1.834234
     26          1           0       -3.846556   -1.064779    1.132159
     27          1           0       -4.799686   -1.653201   -0.222833
     28          1           0       -5.069038    0.548932   -0.974583
     29          1           0       -4.324177    2.475280    0.128598
     30          1           0       -3.559856    1.469895    1.351433
     31          1           0       -2.776112    1.683536   -1.603700
     32          1           0       -1.840441    2.298177   -0.243212
     33          1           0        2.430269   -0.287702   -2.203435
     34          1           0        3.149388   -1.677726   -1.402667
     35          1           0        5.040647   -0.501357   -0.688009
     36          1           0        4.667956    0.469162   -2.102587
     37          1           0        3.477403    1.959585   -0.641979
     38          1           0        4.698243    0.767347    1.701226
     39          1           0        3.311625    1.841228    1.566181
     40          1           0        3.433748   -1.183132    1.321192
     41          1           0        2.219385   -0.176721    2.092371
 ---------------------------------------------------------------------

 SCF Done:  E(RB3LYP) =  -620.575591025     A.U. after    1 cycles

 Excitation energies and oscillator strengths:

 Excited State   1:      Singlet-A      6.6871 eV  185.41 nm  f=0.0108  <S**2>=0.000
      58 -> 60         0.62440
      58 -> 61        -0.29286
 This state for optimization and/or second-order correction.
 Total Energy, E(TD-HF/TD-DFT) =  -620.329843855
 Copying the excited state density for this state as the 1-particle RhoCI density.

 Excited State   2:      Singlet-A      6.7872 eV  182.67 nm  f=0.0024  <S**2>=0.000
      59 -> 60         0.60325
      59 -> 61         0.33024
      59 -> 64        -0.12059

 Excited State   3:      Singlet-A      7.3441 eV  168.82 nm  f=0.0232  <S**2>=0.000
      59 -> 60        -0.31172
      59 -> 61         0.48617
      59 -> 62        -0.30437
      59 -> 64        -0.20957

 Excited State   4:      Singlet-A      7.4783 eV  165.79 nm  f=0.0070  <S**2>=0.000
      58 -> 60         0.30763
      58 -> 61         0.58038
      58 -> 64         0.20673
      58 -> 66        -0.10502

 Excited State   5:      Singlet-A      7.5663 eV  163.86 nm  f=0.0099  <S**2>=0.000
      59 -> 60        -0.17251
      59 -> 61         0.24364
      59 -> 62         0.57272
      59 -> 63        -0.19834
      59 -> 65        -0.11961

 Excited State   6:      Singlet-A      7.6559 eV  161.95 nm  f=0.0380  <S**2>=0.000
      58 -> 62         0.40672
      58 -> 63         0.48175
      58 -> 64        -0.25527
      58 -> 66        -0.13462

 Excited State   7:      Singlet-A      7.9460 eV  156.03 nm  f=0.0229  <S**2>=0.000
      59 -> 61         0.21491
      59 -> 62         0.16468
      59 -> 63         0.43439
      59 -> 64         0.43606
      59 -> 65         0.15046
      59 -> 67        -0.11325

 Excited State   8:      Singlet-A      7.9558 eV  155.84 nm  f=0.0209  <S**2>=0.000
      58 -> 61        -0.10168
      58 -> 62         0.50184
      58 -> 63        -0.41539
      58 -> 65         0.21755

 Excited State   9:      Singlet-A      8.1342 eV  152.42 nm  f=0.0332  <S**2>=0.000
      58 -> 61        -0.20465
      58 -> 62         0.13960
      58 -> 63         0.21865
      58 -> 64         0.57084
      58 -> 67         0.20780

 Excited State  10:      Singlet-A      8.1489 eV  152.15 nm  f=0.0136  <S**2>=0.000
      59 -> 61         0.20082
      59 -> 62        -0.16562
      59 -> 63        -0.38430
      59 -> 64         0.40981
      59 -> 65        -0.22600
      59 -> 66        -0.19461
      59 -> 67        -0.10006

 The electronic state is 1-A.
 Alpha  occ. eigenvalues --  -14.31110 -14.31058 -10.19942 -10.19863 -10.19849
 Alpha  occ. eigenvalues --  -10.19842 -10.17978 -10.17949 -10.17363 -10.17262
 Alpha  occ. eigenvalues --  -10.17195 -10.17172 -10.17134 -10.17128 -10.17114
 Alpha  occ. eigenvalues --   -0.89863  -0.89830  -0.80931  -0.78650  -0.74150
 Alpha  occ. eigenvalues --   -0.73847  -0.73620  -0.67810  -0.63523  -0.61588
 Alpha  occ. eigenvalues --   -0.61469  -0.61045  -0.57504  -0.53646  -0.52315
 Alpha  occ. eigenvalues --   -0.49808  -0.48535  -0.45909  -0.44929  -0.44389
 Alpha  occ. eigenvalues --   -0.43683  -0.43230  -0.42250  -0.42024  -0.40567
 Alpha  occ. eigenvalues --   -0.39325  -0.38738  -0.37750  -0.37172  -0.36404
 Alpha  occ. eigenvalues --   -0.36291  -0.35807  -0.34437  -0.33992  -0.33856
 Alpha  occ. eigenvalues --   -0.32898  -0.31877  -0.31129  -0.30369  -0.30096
 Alpha  occ. eigenvalues --   -0.29130  -0.28747  -0.21495  -0.21372
 Alpha virt. eigenvalues --    0.06556   0.08624   0.09587   0.10352   0.10841
 Alpha virt. eigenvalues --    0.11985   0.12441   0.13350   0.14329   0.14609
 Alpha virt. eigenvalues --    0.14929   0.15569   0.16524   0.16573   0.16938

 Mulliken charges:
               1
     1  C    0.010026
     2  C   -0.177607
     3  C   -0.184778
     4  C   -0.139860
     5  C   -0.042660
     6  C   -0.180588
     7  C   -0.060402
     8  N   -0.517062
     9  C   -0.061603
    10  C   -0.181177
    11  C   -0.174203
    12  C   -0.080520
    13  N   -0.176287
    14  C   -0.066196
    15  C   -0.164890
    16  H   -0.045583
    17  H    0.080773
    18  H    0.087002
    19  H    0.081058
    20  H    0.072718
    21  H    0.071526
    22  H    0.031329
    23  H    0.052800
    24  H    0.082617
    25  H    0.078215
    26  H    0.095434
    27  H    0.089787
    28  H    0.237635
    29  H    0.090347
    30  H    0.097782
    31  H    0.080630
    32  H    0.071934
    33  H    0.060854
    34  H    0.120951
    35  H    0.138236
    36  H    0.089226
    37  H    0.068523
    38  H    0.164663
    39  H    0.033594
    40  H    0.094896
    41  H    0.070860
 Sum of Mulliken charges =  -0.00000

 Dipole moment (field-independent basis, Debye):
    X=              6.4415    Y=             -0.9080    Z=             -1.0402  Tot=              6.5878
 Quadrupole moment (field-independent basis, Debye-Ang):
   XX=            -88.3684   YY=            -98.2113   ZZ=            -96.9482
   XY=              0.6116   XZ=              6.8253   YZ=              0.2876

 Summary of Natural Population Analysis:

                                       Natural Population
                Natural  -----------------------------------------------
    Atom  No    Charge         Core      Valence    Rydberg      Total
 -----------------------------------------------------------------------
      C    1   -0.27091      1.99919     4.25720    0.01452     6.27091
      C    2   -0.46336      1.99930     4.45127    0.01279     6.46336
      C    3   -0.45845      1.99934     4.44704    0.01208     6.45845
      C    4   -0.46963      1.99930     4.45766    0.01267     6.46963
      C    5   -0.26166      1.99921     4.24808    0.01437     6.26166
      C    6   -0.48616      1.99930     4.47505    0.01182     6.48616
      C    7   -0.27443      1.99935     4.25829    0.01679     6.27443
      N    8   -0.71704      1.99961     5.70161    0.01582     7.71704
      C    9   -0.27429      1.99935     4.25825    0.01668     6.27429
      C   10   -0.48148      1.99930     4.47028    0.01190     6.48148
      C   11   -0.46013      1.99927     4.44731    0.01356     6.46013
      C   12   -0.33188      1.99934     4.31368    0.01886     6.33188
      N   13   -0.22902      1.99935     5.21571    0.01397     7.22902
      C   14   -0.32754      1.99933     4.30993    0.01828     6.32754
      C   15   -0.46739      1.99927     4.45383    0.01430     6.46739
      H   16    0.13685      0.00000     0.81161    0.05154     0.86315
      H   17    0.23280      0.00000     0.76371    0.00350     0.76720
      H   18    0.23071      0.00000     0.76450    0.00480     0.76929
      H   19    0.22938      0.00000     0.76704    0.00358     0.77062
      H   20    0.22372      0.00000     0.77020    0.00608     0.77628
      H   21    0.22377      0.00000     0.77250    0.00372     0.77623
      H   22    0.19339      0.00000     0.78792    0.01869     0.80661
      H   23    0.22311      0.00000     0.76646    0.01042     0.77689
      H   24    0.23391      0.00000     0.76272    0.00338     0.76609
      H   25    0.22664      0.00000     0.76966    0.00370     0.77336
      H   26    0.21852      0.00000     0.77801    0.00348     0.78148
      H   27    0.23328      0.00000     0.76439    0.00233     0.76672
      H   28    0.37981      0.00000     0.61562    0.00457     0.62019
      H   29    0.23343      0.00000     0.76433    0.00224     0.76657
      H   30    0.21987      0.00000     0.77745    0.00268     0.78013
      H   31    0.22889      0.00000     0.76809    0.00302     0.77111
      H   32    0.22946      0.00000     0.76501    0.00553     0.77054
      H   33    0.20372      0.00000     0.77252    0.02376     0.79628
      H   34    0.25574      0.00000     0.73987    0.00440     0.74426
      H   35    0.25293      0.00000     0.73748    0.00959     0.74707
      H   36    0.22505      0.00000     0.75447    0.02047     0.77495
      H   37    0.23521      0.00000     0.68550    0.07929     0.76479
      H   38    0.28251      0.00000     0.71386    0.00363     0.71749
      H   39    0.17129      0.00000     0.79004    0.03866     0.82871
      H   40    0.23468      0.00000     0.75597    0.00935     0.76532
      H   41    0.21472      0.00000     0.76689    0.01839     0.78528
 =======================================================================
   * Total *    0.00000     29.98981    87.45099    0.55919   118.00000

 Normal termination of Gaussian 16 at Thu Jul 18 17:55:42 2024.
