 Gaussian 16, Revision A.03,

 -------------------------------------------------------
 # opt=CalcFc B3LYP/6-31G** SCRF=(Solvent=water) scf=xqc
 -------------------------------------------------------

 ----------------------------------
 OXEZLYIDQPBCBB-UHFFFAOYSA-N_conf_2
 ----------------------------------
 Symbolic Z-matrix:
 Charge =  0 Multiplicity = 1

 SCF Done:  E(RB3LYP) =  -620.563198502     A.U. after   11 cycles
 SCF Done:  E(RB3LYP) =  -620.566361373     A.U. after    9 cycles
 SCF Done:  E(RB3LYP) =  -620.566643849     A.U. after    9 cycles
 SCF Done:  E(RB3LYP) =  -620.566665417     A.U. after    8 cycles
 SCF Done:  E(RB3LYP) =  -620.566674300     A.U. after    8 cycles
 SCF Done:  E(RB3LYP) =  -620.566674235     A.U. after    7 cycles
 SCF Done:  E(RB3LYP) =  -620.566675000     A.U. after    7 cycles
 SCF Done:  E(RB3LYP) =  -620.566674953     A.U. after    6 cycles
 SCF Done:  E(RB3LYP) =  -620.566674863     A.U. after    5 cycles
 Optimization completed.
    -- Stationary point found.
 Normal termination of Gaussian 16 at Thu Jul 18 16:26:34 2024.

 ----------------------------------------------------------------------
 # freq B3LYP/6-31G** SCRF=(Solvent=water) volume NMR pop=NPA density=c
 urrent Geom=AllCheck Guess=Read
 ----------------------------------------------------------------------

 Structure from the checkpoint file:  "OXEZLYIDQPBCBB-UHFFFAOYSA-N_conf_2_1.chk"
 ----------------------------------
 OXEZLYIDQPBCBB-UHFFFAOYSA-N_conf_2
 ----------------------------------
 Charge =  0 Multiplicity = 1

 SCF Done:  E(RB3LYP) =  -620.566674863     A.U. after    1 cycles

      1  C    Isotropic =   160.9006   Anisotropy =    11.5790

      2  C    Isotropic =   155.3509   Anisotropy =    24.4632

      3  C    Isotropic =   166.3500   Anisotropy =    22.4110

      4  C    Isotropic =   156.4626   Anisotropy =    31.4680

      5  C    Isotropic =   157.1262   Anisotropy =    17.5958

      6  C    Isotropic =   163.4002   Anisotropy =    12.3541

      7  C    Isotropic =   152.2513   Anisotropy =    36.7525

      8  N    Isotropic =   230.3415   Anisotropy =    65.1118

      9  C    Isotropic =   149.6484   Anisotropy =    29.1312

     10  C    Isotropic =   161.6300   Anisotropy =    20.7674

     11  C    Isotropic =   161.3844   Anisotropy =    20.8280

     12  C    Isotropic =   149.6095   Anisotropy =    29.0828

     13  N    Isotropic =   230.2128   Anisotropy =    65.1020

     14  C    Isotropic =   152.4687   Anisotropy =    37.3116

     15  C    Isotropic =   164.5472   Anisotropy =    12.3203

     16  H    Isotropic =    29.7478   Anisotropy =     7.3844

     17  H    Isotropic =    30.3306   Anisotropy =     6.2633

     18  H    Isotropic =    30.6119   Anisotropy =     5.5657

     19  H    Isotropic =    30.3355   Anisotropy =     7.2703

     20  H    Isotropic =    30.4975   Anisotropy =     5.7083

     21  H    Isotropic =    30.2227   Anisotropy =     7.7341

     22  H    Isotropic =    30.8128   Anisotropy =     4.1184

     23  H    Isotropic =    30.1183   Anisotropy =     6.0300

     24  H    Isotropic =    30.4056   Anisotropy =     6.8208

     25  H    Isotropic =    30.1078   Anisotropy =     8.4638

     26  H    Isotropic =    29.3877   Anisotropy =     8.7657

     27  H    Isotropic =    28.8978   Anisotropy =     7.0813

     28  H    Isotropic =    31.2980   Anisotropy =    15.7758

     29  H    Isotropic =    28.9796   Anisotropy =     9.7356

     30  H    Isotropic =    28.7541   Anisotropy =     7.8836

     31  H    Isotropic =    30.3486   Anisotropy =     5.7823

     32  H    Isotropic =    30.2909   Anisotropy =     8.4066

     33  H    Isotropic =    30.3372   Anisotropy =     8.5208

     34  H    Isotropic =    30.4017   Anisotropy =     6.2862

     35  H    Isotropic =    28.7258   Anisotropy =     7.6468

     36  H    Isotropic =    28.9755   Anisotropy =     9.7965

     37  H    Isotropic =    31.2893   Anisotropy =    15.6656

     38  H    Isotropic =    28.9214   Anisotropy =     7.2863

     39  H    Isotropic =    29.3900   Anisotropy =     8.8396

     40  H    Isotropic =    30.3849   Anisotropy =     6.9544

     41  H    Isotropic =    30.1268   Anisotropy =     8.0205

  Exact polarizability: 205.038  -3.046 183.933   2.329   1.262 181.424
 Approx polarizability: 202.717  -2.270 200.584   1.694   0.913 199.476

                      1                      2                      3
                      A                      A                      A
 Frequencies --     21.9112                32.3773                41.0404
 Red. masses --      2.9768                 3.6231                 3.4405
 Frc consts  --      0.0008                 0.0022                 0.0034
 IR Inten    --      0.6240                 0.5461                 1.4704

                      4                      5                      6
                      A                      A                      A
 Frequencies --     59.4281                81.1679               116.1425
 Red. masses --      3.3256                 3.0691                 2.7817
 Frc consts  --      0.0069                 0.0119                 0.0221
 IR Inten    --      0.8698                 2.1176                 1.7196

                      7                      8                      9
                      A                      A                      A
 Frequencies --    158.5792               195.1106               209.4256
 Red. masses --      2.7540                 2.0689                 2.0783
 Frc consts  --      0.0408                 0.0464                 0.0537
 IR Inten    --      0.2302                 3.2152                 3.4699

                     10                     11                     12
                      A                      A                      A
 Frequencies --    218.9599               254.3000               281.8873
 Red. masses --      2.0793                 2.1454                 1.9469
 Frc consts  --      0.0587                 0.0817                 0.0911
 IR Inten    --      8.4716                 0.8212                 1.6093

                     13                     14                     15
                      A                      A                      A
 Frequencies --    307.5703               369.0301               374.3560
 Red. masses --      1.9955                 2.3388                 2.8826
 Frc consts  --      0.1112                 0.1877                 0.2380
 IR Inten    --      0.5877                 0.5436                 7.3490

                     16                     17                     18
                      A                      A                      A
 Frequencies --    412.5508               433.1495               467.5816
 Red. masses --      1.8399                 2.3056                 2.8384
 Frc consts  --      0.1845                 0.2549                 0.3656
 IR Inten    --      0.4994                 2.4357                 0.3216

                     19                     20                     21
                      A                      A                      A
 Frequencies --    496.3615               516.7059               538.2334
 Red. masses --      3.6046                 2.8834                 2.8454
 Frc consts  --      0.5232                 0.4536                 0.4857
 IR Inten    --      1.4274                 6.9619                 5.9213

                     22                     23                     24
                      A                      A                      A
 Frequencies --    568.4996               570.0270               722.5407
 Red. masses --      1.6720                 1.6994                 1.5891
 Frc consts  --      0.3184                 0.3253                 0.4888
 IR Inten    --     15.0888                 1.3852                14.0940

                     25                     26                     27
                      A                      A                      A
 Frequencies --    751.7674               752.1599               776.4715
 Red. masses --      1.7766                 1.7943                 2.4231
 Frc consts  --      0.5916                 0.5981                 0.8607
 IR Inten    --     70.5082               181.6081                 3.5298

                     28                     29                     30
                      A                      A                      A
 Frequencies --    803.3181               829.5787               855.7665
 Red. masses --      1.6847                 1.6900                 1.9333
 Frc consts  --      0.6406                 0.6853                 0.8342
 IR Inten    --      6.8655                 0.8965                 9.9036

                     31                     32                     33
                      A                      A                      A
 Frequencies --    868.4526               874.9504               886.6753
 Red. masses --      1.9701                 1.8752                 1.8770
 Frc consts  --      0.8754                 0.8458                 0.8694
 IR Inten    --      2.5022                 4.5717                 2.1692

                     34                     35                     36
                      A                      A                      A
 Frequencies --    894.6859               902.8167               940.8341
 Red. masses --      2.0912                 2.1068                 1.9925
 Frc consts  --      0.9862                 1.0117                 1.0391
 IR Inten    --      1.2947                 3.0167                 0.6484

                     37                     38                     39
                      A                      A                      A
 Frequencies --    981.8123              1001.6254              1002.3563
 Red. masses --      2.0257                 1.9025                 1.7016
 Frc consts  --      1.1505                 1.1246                 1.0073
 IR Inten    --      2.9144                 3.6207                 5.4295

                     40                     41                     42
                      A                      A                      A
 Frequencies --   1019.5566              1028.8517              1034.7230
 Red. masses --      1.6717                 1.7449                 1.8578
 Frc consts  --      1.0239                 1.0882                 1.1719
 IR Inten    --      0.8560                 4.0303                 1.9474

                     43                     44                     45
                      A                      A                      A
 Frequencies --   1038.5918              1055.2085              1073.4540
 Red. masses --      1.7325                 2.2367                 2.2219
 Frc consts  --      1.1011                 1.4674                 1.5085
 IR Inten    --      1.7674                 5.7998                 0.7352

                     46                     47                     48
                      A                      A                      A
 Frequencies --   1084.2171              1092.1147              1115.5669
 Red. masses --      1.8220                 2.1421                 2.4173
 Frc consts  --      1.2619                 1.5053                 1.7725
 IR Inten    --      3.4675                 0.7125                14.2241

                     49                     50                     51
                      A                      A                      A
 Frequencies --   1137.2151              1141.7206              1161.5765
 Red. masses --      3.9250                 3.1767                 2.3029
 Frc consts  --      2.9907                 2.4397                 1.8307
 IR Inten    --     34.8500                21.0559                20.5090

                     52                     53                     54
                      A                      A                      A
 Frequencies --   1163.5155              1187.4442              1191.8682
 Red. masses --      2.1070                 1.1430                 1.2054
 Frc consts  --      1.6806                 0.9495                 1.0089
 IR Inten    --     20.5997                 0.7907                 3.2097

                     55                     56                     57
                      A                      A                      A
 Frequencies --   1203.8993              1224.3958              1244.6265
 Red. masses --      1.4523                 1.2463                 1.2193
 Frc consts  --      1.2402                 1.1008                 1.1129
 IR Inten    --      7.4302                 2.4174                12.0839

                     58                     59                     60
                      A                      A                      A
 Frequencies --   1246.6910              1254.0250              1276.1076
 Red. masses --      1.2380                 1.2941                 1.2997
 Frc consts  --      1.1337                 1.1990                 1.2470
 IR Inten    --     17.2440                 6.7268                 6.9926

                     61                     62                     63
                      A                      A                      A
 Frequencies --   1301.8138              1304.0777              1306.1046
 Red. masses --      1.2616                 1.2420                 1.2413
 Frc consts  --      1.2597                 1.2445                 1.2476
 IR Inten    --      5.9903                 1.5526                 5.1723

                     64                     65                     66
                      A                      A                      A
 Frequencies --   1313.2099              1334.0094              1345.8551
 Red. masses --      1.2323                 1.1759                 1.3206
 Frc consts  --      1.2520                 1.2330                 1.4093
 IR Inten    --      4.1340                 1.8617                 1.4366

                     67                     68                     69
                      A                      A                      A
 Frequencies --   1353.8520              1361.4139              1375.8057
 Red. masses --      1.3436                 1.3728                 1.3090
 Frc consts  --      1.4510                 1.4991                 1.4598
 IR Inten    --      4.6486                 4.5812                 1.5627

                     70                     71                     72
                      A                      A                      A
 Frequencies --   1377.7463              1385.4644              1388.7565
 Red. masses --      1.2987                 1.4175                 1.3810
 Frc consts  --      1.4524                 1.6031                 1.5692
 IR Inten    --      1.6932                 0.7960                 4.5747

                     73                     74                     75
                      A                      A                      A
 Frequencies --   1392.9421              1395.5206              1402.6798
 Red. masses --      1.2861                 1.3355                 1.5126
 Frc consts  --      1.4702                 1.5324                 1.7535
 IR Inten    --     20.5625                18.3743                 3.1344

                     76                     77                     78
                      A                      A                      A
 Frequencies --   1408.8990              1409.7444              1410.7075
 Red. masses --      1.4372                 1.3904                 1.4378
 Frc consts  --      1.6808                 1.6280                 1.6859
 IR Inten    --      8.0647                 3.7945                 2.5418

                     79                     80                     81
                      A                      A                      A
 Frequencies --   1482.0359              1483.4688              1485.8718
 Red. masses --      1.1350                 1.2051                 1.1476
 Frc consts  --      1.4689                 1.5625                 1.4928
 IR Inten    --      6.8416                12.0827                 5.1932

                     82                     83                     84
                      A                      A                      A
 Frequencies --   1490.3170              1494.1444              1495.9559
 Red. masses --      1.0951                 1.0994                 1.1017
 Frc consts  --      1.4330                 1.4461                 1.4527
 IR Inten    --      1.4704                 2.3684                 5.5344

                     85                     86                     87
                      A                      A                      A
 Frequencies --   1496.8797              1497.4737              1506.9782
 Red. masses --      1.1122                 1.1049                 1.0951
 Frc consts  --      1.4682                 1.4598                 1.4653
 IR Inten    --      5.9560                 0.7147                 5.5895

                     88                     89                     90
                      A                      A                      A
 Frequencies --   1516.7134              1516.9123              1532.8478
 Red. masses --      1.0825                 1.0821                 1.0870
 Frc consts  --      1.4672                 1.4671                 1.5048
 IR Inten    --      3.1801                 2.7134                 4.3789

                     91                     92                     93
                      A                      A                      A
 Frequencies --   1533.4620              2960.3420              2960.9589
 Red. masses --      1.0870                 1.0726                 1.0726
 Frc consts  --      1.5060                 5.5380                 5.5403
 IR Inten    --      4.4181               120.5742               121.5249

                     94                     95                     96
                      A                      A                      A
 Frequencies --   3002.2510              3005.4101              3006.8005
 Red. masses --      1.0684                 1.0686                 1.0699
 Frc consts  --      5.6737                 5.6866                 5.6991
 IR Inten    --     21.5664                 5.9409                64.2693

                     97                     98                     99
                      A                      A                      A
 Frequencies --   3008.5138              3012.4922              3022.0699
 Red. masses --      1.0655                 1.0758                 1.0708
 Frc consts  --      5.6820                 5.7524                 5.7619
 IR Inten    --     82.8582                16.5128                 8.8300

                    100                    101                    102
                      A                      A                      A
 Frequencies --   3023.2817              3025.3822              3027.0872
 Red. masses --      1.0692                 1.0739                 1.0771
 Frc consts  --      5.7581                 5.7914                 5.8152
 IR Inten    --     65.6894                68.6889                10.1884

                    103                    104                    105
                      A                      A                      A
 Frequencies --   3037.0288              3037.4094              3037.7433
 Red. masses --      1.0824                 1.0740                 1.0737
 Frc consts  --      5.8824                 5.8378                 5.8379
 IR Inten    --    151.8241               196.3188                 5.8619

                    106                    107                    108
                      A                      A                      A
 Frequencies --   3039.9117              3045.4932              3049.0966
 Red. masses --      1.0708                 1.0935                 1.0959
 Frc consts  --      5.8303                 5.9754                 6.0030
 IR Inten    --     60.5973                76.9431                52.9923

                    109                    110                    111
                      A                      A                      A
 Frequencies --   3065.4520              3076.4964              3077.3250
 Red. masses --      1.1027                 1.1018                 1.1017
 Frc consts  --      6.1051                 6.1444                 6.1470
 IR Inten    --    150.7711                58.4824                77.6021

                    112                    113                    114
                      A                      A                      A
 Frequencies --   3080.5507              3080.5911              3084.6232
 Red. masses --      1.0956                 1.0953                 1.0979
 Frc consts  --      6.1259                 6.1240                 6.1546
 IR Inten    --    170.5657                99.6204                48.1526

                    115                    116                    117
                      A                      A                      A
 Frequencies --   3084.7927              3529.5895              3530.3071
 Red. masses --      1.0979                 1.0751                 1.0750
 Frc consts  --      6.1553                 7.8910                 7.8937
 IR Inten    --     45.6688                 0.7344                 0.6860

 - Thermochemistry -
 -------------------
 Temperature   298.150 Kelvin.  Pressure   1.00000 Atm.
 Atom     1 has atomic number  6 and mass  12.00000

 Molecular mass:   210.20960 amu.
 Principal axes and moments of inertia in atomic units:
                           1         2         3
     Eigenvalues --  1016.01352********************
           X            1.00000  -0.00114   0.00205
           Y            0.00112   0.99994   0.01113
           Z           -0.00207  -0.01113   0.99994
 This molecule is an asymmetric top.
 Rotational symmetry number  1.
 Warning -- assumption of classical behavior for rotation
           may cause significant error
 Rotational temperatures (Kelvin)      0.08525     0.00859     0.00852
 Rotational constants (GHZ):           1.77630     0.17902     0.17746
 Zero-point vibrational energy    1008202.2 (Joules/Mol)
                                  240.96610 (Kcal/Mol)
 Warning -- explicit consideration of  23 degrees of freedom as
           vibrations may cause significant error
 Vibrational temperatures:     31.53    46.58    59.05    85.50   116.78
          (Kelvin)            167.10   228.16   280.72   301.32   315.03
                              365.88   405.57   442.53   530.95   538.61
                              593.57   623.21   672.75   714.15   743.42
                              774.40   817.94   820.14  1039.57  1081.63
                             1082.19  1117.17  1155.80  1193.58  1231.26
                             1249.51  1258.86  1275.73  1287.25  1298.95
                             1353.65  1412.61  1441.12  1442.17  1466.91
                             1480.29  1488.74  1494.30  1518.21  1544.46
                             1559.95  1571.31  1605.05  1636.20  1642.68
                             1671.25  1674.04  1708.47  1714.83  1732.14
                             1761.63  1790.74  1793.71  1804.26  1836.03
                             1873.02  1876.28  1879.19  1889.42  1919.34
                             1936.39  1947.89  1958.77  1979.48  1982.27
                             1993.37  1998.11  2004.13  2007.84  2018.14
                             2027.09  2028.31  2029.69  2132.32  2134.38
                             2137.84  2144.23  2149.74  2152.35  2153.68
                             2154.53  2168.21  2182.21  2182.50  2205.43
                             2206.31  4259.27  4260.16  4319.57  4324.11
                             4326.12  4328.58  4334.30  4348.08  4349.83
                             4352.85  4355.30  4369.61  4370.15  4370.64
                             4373.75  4381.79  4386.97  4410.50  4426.39
                             4427.58  4432.23  4432.28  4438.08  4438.33
                             5078.29  5079.32

 Zero-point correction=                           0.384004 (Hartree/Particle)
 Thermal correction to Energy=                    0.399568
 Thermal correction to Enthalpy=                  0.400512
 Thermal correction to Gibbs Free Energy=         0.339188
 Sum of electronic and zero-point Energies=           -620.182671
 Sum of electronic and thermal Energies=              -620.167107
 Sum of electronic and thermal Enthalpies=            -620.166162
 Sum of electronic and thermal Free Energies=         -620.227487

                     E (Thermal)             CV                S
                      KCal/Mol        Cal/Mol-Kelvin    Cal/Mol-Kelvin
 Total                  250.733             60.732            129.069
 Electronic               0.000              0.000              0.000
 Translational            0.889              2.981             41.933
 Rotational               0.889              2.981             33.010
 Vibrational            248.955             54.771             54.127
 Vibration     1          0.593              1.985              6.453
 Vibration     2          0.594              1.983              5.678
 Vibration     3          0.594              1.981              5.208
 Vibration     4          0.597              1.974              4.476
 Vibration     5          0.600              1.962              3.862
 Vibration     6          0.608              1.936              3.164
 Vibration     7          0.621              1.893              2.567
 Vibration     8          0.636              1.847              2.179
 Vibration     9          0.642              1.826              2.049
 Vibration    10          0.647              1.812              1.968
 Vibration    11          0.665              1.756              1.701
 Vibration    12          0.681              1.707              1.522
 Vibration    13          0.697              1.659              1.375
 Vibration    14          0.741              1.536              1.084
 Vibration    15          0.745              1.525              1.062
 Vibration    16          0.776              1.443              0.918
 Vibration    17          0.794              1.398              0.848
 Vibration    18          0.825              1.322              0.744
 Vibration    19          0.852              1.258              0.667
 Vibration    20          0.872              1.213              0.618
 Vibration    21          0.893              1.165              0.569
 Vibration    22          0.925              1.099              0.507
 Vibration    23          0.926              1.096              0.504

 Optimization completed.
    -- Stationary point found.
 Normal termination of Gaussian 16 at Thu Jul 18 16:53:01 2024.
 Gaussian 16:  ES64L-G16RevA.03 25-Dec-2016

 ----------------------------------------------------------------------
 # TD(NStates=10, Root=1) B3LYP/6-31G** SCRF=(Solvent=water) volume pop
 =NPA density=current Geom=AllCheck Guess=Read
 ----------------------------------------------------------------------

 Structure from the checkpoint file:  "OXEZLYIDQPBCBB-UHFFFAOYSA-N_conf_2_2.chk"
 ----------------------------------
 OXEZLYIDQPBCBB-UHFFFAOYSA-N_conf_2
 ----------------------------------
 Charge =  0 Multiplicity = 1

                         Standard orientation:
 ---------------------------------------------------------------------
 Center     Atomic      Atomic             Coordinates (Angstroms)
 Number     Number       Type             X           Y           Z
 ---------------------------------------------------------------------
      1          6           0       -2.253096    0.009368   -0.294301
      2          6           0       -1.305511   -1.188689   -0.084385
      3          6           0        0.020372   -0.888374    0.636475
      4          6           0        0.997599   -0.017319   -0.166015
      5          6           0        2.361846    0.203839    0.515631
      6          6           0        3.258802   -1.068617    0.517516
      7          6           0        4.309774   -1.004601   -0.599116
      8          7           0        5.228964    0.146043   -0.483976
      9          6           0        4.615284    1.333418    0.150883
     10          6           0        3.116807    1.381688   -0.147851
     11          6           0       -3.363917   -0.357694   -1.309227
     12          6           0       -4.573097    0.569092   -1.182966
     13          7           0       -5.239023    0.370306    0.123306
     14          6           0       -4.314123   -0.028655    1.204019
     15          6           0       -2.890891    0.519005    1.030908
     16          1           0       -1.676010    0.834980   -0.729892
     17          1           0       -1.849249   -1.963740    0.474582
     18          1           0       -1.076632   -1.631960   -1.064141
     19          1           0        0.500264   -1.845454    0.877356
     20          1           0       -0.177480   -0.404875    1.603039
     21          1           0        0.541154    0.963548   -0.352858
     22          1           0        1.161559   -0.467209   -1.156969
     23          1           0        2.169700    0.483241    1.561120
     24          1           0        2.651079   -1.973894    0.402964
     25          1           0        3.775853   -1.164907    1.480250
     26          1           0        4.911855   -1.918782   -0.617856
     27          1           0        3.795900   -0.958840   -1.569992
     28          1           0        6.029062   -0.137236    0.074320
     29          1           0        5.109870    2.237068   -0.228717
     30          1           0        4.752615    1.339554    1.245586
     31          1           0        2.973550    1.351880   -1.236617
     32          1           0        2.698186    2.334968    0.192933
     33          1           0       -2.967607   -0.318696   -2.329791
     34          1           0       -3.694967   -1.392245   -1.144522
     35          1           0       -4.231579    1.608706   -1.324177
     36          1           0       -5.294516    0.367939   -1.985668
     37          1           0       -5.686591    1.242469    0.389944
     38          1           0       -4.270181   -1.126147    1.252874
     39          1           0       -4.743326    0.299993    2.156051
     40          1           0       -2.276629    0.235261    1.893585
     41          1           0       -2.934574    1.615179    1.031863
 ---------------------------------------------------------------------

 SCF Done:  E(RB3LYP) =  -620.566674863     A.U. after    1 cycles

 Excitation energies and oscillator strengths:

 Excited State   1:      Singlet-A      6.6989 eV  185.08 nm  f=0.0057  <S**2>=0.000
      58 -> 60        -0.18348
      58 -> 61        -0.15921
      59 -> 60         0.46228
      59 -> 61         0.44775
 This state for optimization and/or second-order correction.
 Total Energy, E(TD-HF/TD-DFT) =  -620.320494833
 Copying the excited state density for this state as the 1-particle RhoCI density.

 Excited State   2:      Singlet-A      6.7000 eV  185.05 nm  f=0.0052  <S**2>=0.000
      58 -> 60         0.47511
      58 -> 61        -0.43224
      58 -> 64        -0.10368
      59 -> 60         0.18828
      59 -> 61        -0.15335

 Excited State   3:      Singlet-A      7.4485 eV  166.45 nm  f=0.0051  <S**2>=0.000
      58 -> 60        -0.17563
      58 -> 61         0.15927
      59 -> 60         0.46343
      59 -> 61        -0.42777
      59 -> 63        -0.15614

 Excited State   4:      Singlet-A      7.4663 eV  166.06 nm  f=0.0008  <S**2>=0.000
      58 -> 60         0.45061
      58 -> 61         0.46739
      58 -> 64         0.10289
      59 -> 60         0.17067
      59 -> 61         0.17398

 Excited State   5:      Singlet-A      7.5546 eV  164.12 nm  f=0.0070  <S**2>=0.000
      58 -> 62         0.56383
      58 -> 63         0.23830
      58 -> 65         0.19971
      58 -> 66        -0.10631
      59 -> 62         0.21242

 Excited State   6:      Singlet-A      7.5724 eV  163.73 nm  f=0.0041  <S**2>=0.000
      58 -> 62         0.11051
      58 -> 63        -0.19277
      59 -> 61        -0.18487
      59 -> 62        -0.29253
      59 -> 63         0.51477
      59 -> 66        -0.19034

 Excited State   7:      Singlet-A      7.8907 eV  157.13 nm  f=0.0047  <S**2>=0.000
      58 -> 61         0.15935
      58 -> 62        -0.26264
      58 -> 63         0.25636
      58 -> 64        -0.31121
      58 -> 65         0.37498
      58 -> 68        -0.12899
      59 -> 64        -0.11746
      59 -> 65         0.14128

 Excited State   8:      Singlet-A      7.9567 eV  155.82 nm  f=0.0068  <S**2>=0.000
      58 -> 64        -0.15995
      58 -> 66        -0.12631
      59 -> 61         0.11078
      59 -> 62         0.15766
      59 -> 63         0.21461
      59 -> 64         0.42478
      59 -> 66         0.33721
      59 -> 67        -0.21225

 Excited State   9:      Singlet-A      8.0449 eV  154.12 nm  f=0.0285  <S**2>=0.000
      58 -> 62        -0.19672
      59 -> 62         0.52053
      59 -> 63         0.25798
      59 -> 64        -0.21015
      59 -> 65        -0.18147

 Excited State  10:      Singlet-A      8.1387 eV  152.34 nm  f=0.0084  <S**2>=0.000
      58 -> 62        -0.12184
      58 -> 63         0.53001
      58 -> 64         0.26398
      58 -> 65        -0.16137
      58 -> 67         0.15839
      58 -> 68         0.10319
      59 -> 63         0.19764

 The electronic state is 1-A.
 Alpha  occ. eigenvalues --  -14.30769 -14.30768 -10.19887 -10.19883 -10.19842
 Alpha  occ. eigenvalues --  -10.19839 -10.18066 -10.17989 -10.17432 -10.17422
 Alpha  occ. eigenvalues --  -10.17325 -10.17305 -10.17205 -10.17144 -10.17126
 Alpha  occ. eigenvalues --   -0.89403  -0.89391  -0.80921  -0.78900  -0.74433
 Alpha  occ. eigenvalues --   -0.73937  -0.73711  -0.68052  -0.63038  -0.62325
 Alpha  occ. eigenvalues --   -0.62219  -0.59500  -0.56283  -0.52478  -0.52260
 Alpha  occ. eigenvalues --   -0.50062  -0.50031  -0.47219  -0.46815  -0.44010
 Alpha  occ. eigenvalues --   -0.43964  -0.43598  -0.41061  -0.39835  -0.39520
 Alpha  occ. eigenvalues --   -0.39288  -0.38703  -0.38019  -0.37298  -0.36826
 Alpha  occ. eigenvalues --   -0.36248  -0.35692  -0.35342  -0.35042  -0.34138
 Alpha  occ. eigenvalues --   -0.32816  -0.31468  -0.30767  -0.30071  -0.29692
 Alpha  occ. eigenvalues --   -0.29089  -0.28988  -0.20988  -0.20985
 Alpha virt. eigenvalues --    0.07546   0.08003   0.10174   0.10382   0.11345
 Alpha virt. eigenvalues --    0.11995   0.12330   0.13617   0.13890   0.14519
 Alpha virt. eigenvalues --    0.15069   0.16037   0.16207   0.16720   0.16908

 Mulliken charges:
               1
     1  C   -0.042188
     2  C   -0.182123
     3  C   -0.184118
     4  C   -0.164453
     5  C   -0.023249
     6  C   -0.138884
     7  C   -0.029950
     8  N   -0.180684
     9  C   -0.020616
    10  C   -0.168637
    11  C   -0.200888
    12  C   -0.044841
    13  N   -0.535958
    14  C   -0.062402
    15  C   -0.190429
    16  H    0.085862
    17  H    0.085985
    18  H    0.085725
    19  H    0.080455
    20  H    0.086211
    21  H    0.078442
    22  H    0.073238
    23  H    0.036740
    24  H    0.083240
    25  H    0.012109
    26  H    0.001242
    27  H    0.133108
    28  H    0.044219
    29  H    0.115209
    30  H    0.041306
    31  H    0.096634
    32  H    0.034450
    33  H    0.096920
    34  H    0.097592
    35  H    0.084168
    36  H    0.089405
    37  H    0.248076
    38  H    0.096662
    39  H    0.097044
    40  H    0.092452
    41  H    0.092930
 Sum of Mulliken charges =  -0.00000

 Dipole moment (field-independent basis, Debye):
    X=              1.8935    Y=              1.8547    Z=             -1.3263  Tot=              2.9639
 Quadrupole moment (field-independent basis, Debye-Ang):
   XX=           -105.5843   YY=            -97.4160   ZZ=            -97.5374
   XY=             -1.2637   XZ=             -7.7327   YZ=              0.7364

 Summary of Natural Population Analysis:

                                       Natural Population
                Natural  -----------------------------------------------
    Atom  No    Charge         Core      Valence    Rydberg      Total
 -----------------------------------------------------------------------
      C    1   -0.25746      1.99922     4.24416    0.01408     6.25746
      C    2   -0.45788      1.99931     4.44603    0.01254     6.45788
      C    3   -0.45763      1.99933     4.44663    0.01167     6.45763
      C    4   -0.46303      1.99930     4.45036    0.01337     6.46303
      C    5   -0.25588      1.99923     4.24131    0.01535     6.25588
      C    6   -0.47075      1.99925     4.45930    0.01220     6.47075
      C    7   -0.32795      1.99931     4.31010    0.01854     6.32795
      N    8   -0.20057      1.99937     5.19135    0.00985     7.20057
      C    9   -0.31820      1.99927     4.30326    0.01567     6.31820
      C   10   -0.48563      1.99931     4.47420    0.01212     6.48563
      C   11   -0.48075      1.99931     4.47042    0.01102     6.48075
      C   12   -0.26870      1.99935     4.25482    0.01453     6.26870
      N   13   -0.72526      1.99959     5.71024    0.01543     7.72526
      C   14   -0.27718      1.99935     4.26143    0.01640     6.27718
      C   15   -0.48839      1.99931     4.47799    0.01110     6.48839
      H   16    0.23987      0.00000     0.75732    0.00281     0.76013
      H   17    0.23381      0.00000     0.76410    0.00209     0.76619
      H   18    0.23268      0.00000     0.76499    0.00233     0.76732
      H   19    0.22628      0.00000     0.76860    0.00513     0.77372
      H   20    0.22443      0.00000     0.77179    0.00378     0.77557
      H   21    0.22291      0.00000     0.77096    0.00612     0.77709
      H   22    0.21903      0.00000     0.77367    0.00730     0.78097
      H   23    0.20529      0.00000     0.77477    0.01994     0.79471
      H   24    0.23073      0.00000     0.75605    0.01322     0.76927
      H   25    0.17248      0.00000     0.78950    0.03802     0.82752
      H   26    0.15483      0.00000     0.80312    0.04205     0.84517
      H   27    0.25720      0.00000     0.72948    0.01333     0.74280
      H   28    0.20132      0.00000     0.70724    0.09143     0.79868
      H   29    0.25426      0.00000     0.73009    0.01565     0.74574
      H   30    0.18453      0.00000     0.76799    0.04747     0.81547
      H   31    0.23699      0.00000     0.75441    0.00861     0.76301
      H   32    0.19477      0.00000     0.78304    0.02219     0.80523
      H   33    0.24904      0.00000     0.74930    0.00166     0.75096
      H   34    0.23176      0.00000     0.76570    0.00254     0.76824
      H   35    0.20756      0.00000     0.78956    0.00289     0.79244
      H   36    0.23036      0.00000     0.76767    0.00197     0.76964
      H   37    0.39237      0.00000     0.60439    0.00324     0.60763
      H   38    0.21710      0.00000     0.78056    0.00235     0.78290
      H   39    0.24048      0.00000     0.75785    0.00167     0.75952
      H   40    0.23911      0.00000     0.75879    0.00210     0.76089
      H   41    0.23608      0.00000     0.76179    0.00213     0.76392
 =======================================================================
   * Total *    0.00000     29.98980    87.44434    0.56587   118.00000

 Normal termination of Gaussian 16 at Thu Jul 18 17:18:03 2024.
