 Gaussian 16, Revision A.03,

 -------------------------------------------------------
 # opt=CalcFc B3LYP/6-31G** SCRF=(Solvent=water) scf=xqc
 -------------------------------------------------------

 ----------------------------------
 OXEZLYIDQPBCBB-UHFFFAOYSA-N_conf_3
 ----------------------------------
 Symbolic Z-matrix:
 Charge =  0 Multiplicity = 1

 SCF Done:  E(RB3LYP) =  -620.572428928     A.U. after   11 cycles
 SCF Done:  E(RB3LYP) =  -620.575410966     A.U. after    9 cycles
 SCF Done:  E(RB3LYP) =  -620.576066866     A.U. after   10 cycles
 SCF Done:  E(RB3LYP) =  -620.576168256     A.U. after    9 cycles
 SCF Done:  E(RB3LYP) =  -620.576217429     A.U. after    8 cycles
 SCF Done:  E(RB3LYP) =  -620.576219973     A.U. after    8 cycles
 SCF Done:  E(RB3LYP) =  -620.576232711     A.U. after    7 cycles
 SCF Done:  E(RB3LYP) =  -620.576247080     A.U. after    8 cycles
 SCF Done:  E(RB3LYP) =  -620.576247778     A.U. after    6 cycles
 SCF Done:  E(RB3LYP) =  -620.576249799     A.U. after    7 cycles
 SCF Done:  E(RB3LYP) =  -620.576250735     A.U. after    6 cycles
 SCF Done:  E(RB3LYP) =  -620.576250951     A.U. after    6 cycles
 Optimization completed.
    -- Stationary point found.
 Normal termination of Gaussian 16 at Thu Jul 18 16:51:38 2024.

 ----------------------------------------------------------------------
 # freq B3LYP/6-31G** SCRF=(Solvent=water) volume NMR pop=NPA density=c
 urrent Geom=AllCheck Guess=Read
 ----------------------------------------------------------------------

 Structure from the checkpoint file:  "OXEZLYIDQPBCBB-UHFFFAOYSA-N_conf_3_1.chk"
 ----------------------------------
 OXEZLYIDQPBCBB-UHFFFAOYSA-N_conf_3
 ----------------------------------
 Charge =  0 Multiplicity = 1

 SCF Done:  E(RB3LYP) =  -620.576250951     A.U. after    1 cycles

      1  C    Isotropic =   151.1112   Anisotropy =    20.1052

      2  C    Isotropic =   151.9826   Anisotropy =    35.5509

      3  C    Isotropic =   164.9512   Anisotropy =    19.5165

      4  C    Isotropic =   157.7866   Anisotropy =    13.3705

      5  C    Isotropic =   160.5992   Anisotropy =    13.3763

      6  C    Isotropic =   166.2613   Anisotropy =     9.7156

      7  C    Isotropic =   147.1687   Anisotropy =    35.1514

      8  N    Isotropic =   235.4502   Anisotropy =    48.1041

      9  C    Isotropic =   150.3561   Anisotropy =    32.9366

     10  C    Isotropic =   160.3144   Anisotropy =    20.2589

     11  C    Isotropic =   156.3555   Anisotropy =    16.5736

     12  C    Isotropic =   143.7537   Anisotropy =    30.1649

     13  N    Isotropic =   213.4791   Anisotropy =    41.3659

     14  C    Isotropic =   143.9277   Anisotropy =    30.2187

     15  C    Isotropic =   159.1213   Anisotropy =    12.1104

     16  H    Isotropic =    30.6132   Anisotropy =     4.4581

     17  H    Isotropic =    30.5997   Anisotropy =     4.9338

     18  H    Isotropic =    30.2170   Anisotropy =     7.6890

     19  H    Isotropic =    30.6636   Anisotropy =     7.4674

     20  H    Isotropic =    29.9377   Anisotropy =     4.5145

     21  H    Isotropic =    30.0760   Anisotropy =     9.1475

     22  H    Isotropic =    30.3627   Anisotropy =     6.7703

     23  H    Isotropic =    29.9279   Anisotropy =     7.4546

     24  H    Isotropic =    30.2289   Anisotropy =     7.0034

     25  H    Isotropic =    30.5256   Anisotropy =     7.1164

     26  H    Isotropic =    28.8414   Anisotropy =     9.1027

     27  H    Isotropic =    29.0860   Anisotropy =     9.2746

     28  H    Isotropic =    31.2837   Anisotropy =    14.0916

     29  H    Isotropic =    29.2638   Anisotropy =     7.3752

     30  H    Isotropic =    29.1662   Anisotropy =     9.5732

     31  H    Isotropic =    30.3311   Anisotropy =     8.2966

     32  H    Isotropic =    30.3395   Anisotropy =     8.6331

     33  H    Isotropic =    30.3976   Anisotropy =     7.2995

     34  H    Isotropic =    30.5782   Anisotropy =     5.8658

     35  H    Isotropic =    28.9446   Anisotropy =     8.9459

     36  H    Isotropic =    29.1047   Anisotropy =     8.2500

     37  H    Isotropic =    30.9418   Anisotropy =    16.0072

     38  H    Isotropic =    29.1699   Anisotropy =     8.0915

     39  H    Isotropic =    28.9206   Anisotropy =     8.5951

     40  H    Isotropic =    30.1212   Anisotropy =     6.4946

     41  H    Isotropic =    30.7773   Anisotropy =     6.0793

  Exact polarizability: 202.088   2.297 189.390  -1.894   5.165 185.174
 Approx polarizability: 203.809   2.037 203.151  -2.509   2.684 202.255

                      1                      2                      3
                      A                      A                      A
 Frequencies --     27.5581                34.8685                53.9866
 Red. masses --      3.9020                 2.9916                 2.9329
 Frc consts  --      0.0017                 0.0021                 0.0050
 IR Inten    --      0.0645                 0.0886                 0.2023

                      4                      5                      6
                      A                      A                      A
 Frequencies --     83.8726               104.3536               142.2213
 Red. masses --      3.0982                 2.7368                 2.8577
 Frc consts  --      0.0128                 0.0176                 0.0341
 IR Inten    --      1.1201                 0.2768                 0.2746

                      7                      8                      9
                      A                      A                      A
 Frequencies --    168.3556               195.8801               200.3253
 Red. masses --      2.0567                 2.8701                 2.1363
 Frc consts  --      0.0343                 0.0649                 0.0505
 IR Inten    --      0.2683                 1.4612                 0.3291

                     10                     11                     12
                      A                      A                      A
 Frequencies --    251.9892               275.6027               311.7888
 Red. masses --      1.7900                 1.8298                 2.3367
 Frc consts  --      0.0670                 0.0819                 0.1338
 IR Inten    --      0.6605                 8.5494                 0.4901

                     13                     14                     15
                      A                      A                      A
 Frequencies --    316.7868               340.2067               363.6650
 Red. masses --      2.9129                 2.3412                 1.9686
 Frc consts  --      0.1722                 0.1597                 0.1534
 IR Inten    --      0.2090                 1.4758                 2.1992

                     16                     17                     18
                      A                      A                      A
 Frequencies --    400.2794               446.8942               464.1930
 Red. masses --      2.5392                 2.2156                 3.0065
 Frc consts  --      0.2397                 0.2607                 0.3817
 IR Inten    --      3.3399                 2.1177                 2.5977

                     19                     20                     21
                      A                      A                      A
 Frequencies --    473.2444               505.1965               550.5915
 Red. masses --      3.0007                 3.4383                 2.1137
 Frc consts  --      0.3960                 0.5170                 0.3775
 IR Inten    --     11.2341                 5.8085                13.9051

                     22                     23                     24
                      A                      A                      A
 Frequencies --    594.7058               620.9499               759.3415
 Red. masses --      1.7614                 2.1206                 1.7859
 Frc consts  --      0.3670                 0.4817                 0.6067
 IR Inten    --     22.5969                 1.0871                 6.0263

                     25                     26                     27
                      A                      A                      A
 Frequencies --    772.9113               789.4095               797.7975
 Red. masses --      1.4174                 2.3340                 1.6484
 Frc consts  --      0.4989                 0.8570                 0.6181
 IR Inten    --     15.6562                65.7536               154.3582

                     28                     29                     30
                      A                      A                      A
 Frequencies --    816.9977               822.1468               825.8766
 Red. masses --      1.6919                 1.7259                 1.6172
 Frc consts  --      0.6654                 0.6873                 0.6499
 IR Inten    --     43.0313                 5.7732                12.4255

                     31                     32                     33
                      A                      A                      A
 Frequencies --    842.0713               897.8839               900.0496
 Red. masses --      1.8559                 2.2845                 2.4452
 Frc consts  --      0.7754                 1.0851                 1.1671
 IR Inten    --     20.2011                 2.4362                 4.3335

                     34                     35                     36
                      A                      A                      A
 Frequencies --    917.9086               921.3024               941.1186
 Red. masses --      2.0117                 1.8402                 1.9066
 Frc consts  --      0.9987                 0.9203                 0.9950
 IR Inten    --      4.6325                16.1274                11.1277

                     37                     38                     39
                      A                      A                      A
 Frequencies --    953.3709               985.2615               995.4958
 Red. masses --      1.6278                 2.1865                 1.4710
 Frc consts  --      0.8717                 1.2506                 0.8589
 IR Inten    --      3.5731                16.8843                 3.3112

                     40                     41                     42
                      A                      A                      A
 Frequencies --   1002.4425              1010.4349              1024.2947
 Red. masses --      2.2770                 1.9147                 2.0762
 Frc consts  --      1.3481                 1.1518                 1.2834
 IR Inten    --      6.6140                 8.7990                 1.6534

                     43                     44                     45
                      A                      A                      A
 Frequencies --   1049.4619              1060.4523              1080.2562
 Red. masses --      2.1200                 1.5886                 1.8413
 Frc consts  --      1.3757                 1.0525                 1.2660
 IR Inten    --      0.2054                 2.8301                 0.5080

                     46                     47                     48
                      A                      A                      A
 Frequencies --   1110.0747              1121.4327              1121.8643
 Red. masses --      2.8008                 3.6470                 1.8391
 Frc consts  --      2.0335                 2.7023                 1.3638
 IR Inten    --     16.1613                32.2831                 1.0197

                     49                     50                     51
                      A                      A                      A
 Frequencies --   1126.2965              1148.1465              1162.6157
 Red. masses --      2.5275                 2.6686                 1.5884
 Frc consts  --      1.8891                 2.0726                 1.2649
 IR Inten    --      7.8641                 0.8704                24.7411

                     52                     53                     54
                      A                      A                      A
 Frequencies --   1166.0380              1173.8856              1182.4816
 Red. masses --      1.5291                 1.1635                 2.2454
 Frc consts  --      1.2249                 0.9447                 1.8498
 IR Inten    --     25.1684                 0.8656                 9.0178

                     55                     56                     57
                      A                      A                      A
 Frequencies --   1211.9575              1223.3129              1247.7825
 Red. masses --      1.5380                 1.2204                 1.2806
 Frc consts  --      1.3310                 1.0760                 1.1747
 IR Inten    --      0.9281                 1.1911                 5.3744

                     58                     59                     60
                      A                      A                      A
 Frequencies --   1259.8335              1281.1721              1294.3281
 Red. masses --      1.2207                 1.3010                 1.2384
 Frc consts  --      1.1415                 1.2582                 1.2224
 IR Inten    --     16.4901                 5.3815                 1.2348

                     61                     62                     63
                      A                      A                      A
 Frequencies --   1306.0885              1310.8169              1319.5793
 Red. masses --      1.2294                 1.2915                 1.2182
 Frc consts  --      1.2356                 1.3075                 1.2498
 IR Inten    --      2.0873                 0.8278                 3.8358

                     64                     65                     66
                      A                      A                      A
 Frequencies --   1328.4040              1338.7964              1344.9730
 Red. masses --      1.2188                 1.2438                 1.2732
 Frc consts  --      1.2672                 1.3135                 1.3570
 IR Inten    --      3.9778                 0.8504                 1.7314

                     67                     68                     69
                      A                      A                      A
 Frequencies --   1351.8040              1352.1246              1362.8772
 Red. masses --      1.2916                 1.2314                 1.2423
 Frc consts  --      1.3906                 1.3265                 1.3596
 IR Inten    --     49.9257                 3.3817                 0.2787

                     70                     71                     72
                      A                      A                      A
 Frequencies --   1369.8493              1382.6777              1388.8128
 Red. masses --      1.2057                 1.5055                 1.4117
 Frc consts  --      1.3330                 1.6958                 1.6043
 IR Inten    --      1.8704                 0.5065                 1.5737

                     73                     74                     75
                      A                      A                      A
 Frequencies --   1392.0458              1401.3922              1404.5862
 Red. masses --      1.3519                 1.3734                 1.6103
 Frc consts  --      1.5434                 1.5892                 1.8718
 IR Inten    --     31.2822                18.0525                 1.7328

                     76                     77                     78
                      A                      A                      A
 Frequencies --   1412.7716              1418.4835              1434.7416
 Red. masses --      1.4166                 1.4788                 1.4693
 Frc consts  --      1.6658                 1.7531                 1.7820
 IR Inten    --      2.4148                 0.9597                13.2449

                     79                     80                     81
                      A                      A                      A
 Frequencies --   1478.1592              1485.1257              1486.5515
 Red. masses --      1.1587                 1.1098                 1.1644
 Frc consts  --      1.4916                 1.4422                 1.5161
 IR Inten    --      4.0066                 1.7360                 1.6913

                     82                     83                     84
                      A                      A                      A
 Frequencies --   1488.6341              1491.3286              1494.6726
 Red. masses --      1.1229                 1.0971                 1.0964
 Frc consts  --      1.4661                 1.4376                 1.4431
 IR Inten    --     11.4790                 4.9500                 2.3383

                     85                     86                     87
                      A                      A                      A
 Frequencies --   1496.9865              1499.6092              1503.3772
 Red. masses --      1.0861                 1.1169                 1.0919
 Frc consts  --      1.4340                 1.4799                 1.4540
 IR Inten    --      3.4710                 4.1106                 2.5469

                     88                     89                     90
                      A                      A                      A
 Frequencies --   1507.0434              1509.0764              1515.0099
 Red. masses --      1.1155                 1.0930                 1.0953
 Frc consts  --      1.4927                 1.4665                 1.4813
 IR Inten    --      1.2998                 5.8920                 0.9613

                     91                     92                     93
                      A                      A                      A
 Frequencies --   1518.3712              2916.2947              2919.1740
 Red. masses --      1.1054                 1.0736                 1.0723
 Frc consts  --      1.5014                 5.3797                 5.3837
 IR Inten    --      2.6201                46.7569               237.1813

                     94                     95                     96
                      A                      A                      A
 Frequencies --   2983.6851              2990.9993              3008.4958
 Red. masses --      1.0818                 1.0799                 1.0641
 Frc consts  --      5.6744                 5.6920                 5.6746
 IR Inten    --     46.1777                25.7029                34.1356

                     97                     98                     99
                      A                      A                      A
 Frequencies --   3013.0435              3013.9392              3020.6263
 Red. masses --      1.0626                 1.0671                 1.0672
 Frc consts  --      5.6839                 5.7114                 5.7369
 IR Inten    --     87.1286                88.5701                79.6199

                    100                    101                    102
                      A                      A                      A
 Frequencies --   3023.2244              3028.1539              3030.8006
 Red. masses --      1.0619                 1.0636                 1.0617
 Frc consts  --      5.7184                 5.7465                 5.7458
 IR Inten    --     34.3757                85.1002                72.9261

                    103                    104                    105
                      A                      A                      A
 Frequencies --   3035.1514              3039.3285              3045.0321
 Red. masses --      1.0641                 1.0684                 1.0997
 Frc consts  --      5.7757                 5.8148                 6.0079
 IR Inten    --    133.8385                13.6926                44.7655

                    106                    107                    108
                      A                      A                      A
 Frequencies --   3051.4435              3063.6201              3065.8173
 Red. masses --      1.0974                 1.1009                 1.0881
 Frc consts  --      6.0206                 6.0880                 6.0256
 IR Inten    --     37.4264                17.3552               122.9737

                    109                    110                    111
                      A                      A                      A
 Frequencies --   3068.2745              3070.5423              3073.9274
 Red. masses --      1.0886                 1.1026                 1.1000
 Frc consts  --      6.0383                 6.1247                 6.1241
 IR Inten    --     68.4040                 7.4341               212.3304

                    112                    113                    114
                      A                      A                      A
 Frequencies --   3076.6629              3083.6712              3084.1655
 Red. masses --      1.0998                 1.1002                 1.0990
 Frc consts  --      6.1338                 6.1640                 6.1591
 IR Inten    --     72.1054               150.7673                24.0676

                    115                    116                    117
                      A                      A                      A
 Frequencies --   3098.6845              3504.7039              3514.4183
 Red. masses --      1.0980                 1.0744                 1.0749
 Frc consts  --      6.2115                 7.7754                 7.8218
 IR Inten    --     87.5054                 0.5886                 1.1232

 - Thermochemistry -
 -------------------
 Temperature   298.150 Kelvin.  Pressure   1.00000 Atm.
 Atom     1 has atomic number  6 and mass  12.00000

 Molecular mass:   210.20960 amu.
 Principal axes and moments of inertia in atomic units:
                           1         2         3
     Eigenvalues --  1491.607338258.198848309.14636
           X            1.00000   0.00070   0.00041
           Y           -0.00079   0.95503   0.29652
           Z           -0.00019  -0.29652   0.95503
 This molecule is an asymmetric top.
 Rotational symmetry number  1.
 Warning -- assumption of classical behavior for rotation
           may cause significant error
 Rotational temperatures (Kelvin)      0.05807     0.01049     0.01042
 Rotational constants (GHZ):           1.20993     0.21854     0.21720
 Zero-point vibrational energy    1009909.4 (Joules/Mol)
                                  241.37415 (Kcal/Mol)
 Warning -- explicit consideration of  22 degrees of freedom as
           vibrations may cause significant error
 Vibrational temperatures:     39.65    50.17    77.67   120.67   150.14
          (Kelvin)            204.62   242.23   281.83   288.22   362.56
                              396.53   448.59   455.79   489.48   523.23
                              575.91   642.98   667.87   680.89   726.87
                              792.18   855.65   893.41  1092.52  1112.05
                             1135.78  1147.85  1175.48  1182.89  1188.25
                             1211.55  1291.85  1294.97  1320.67  1325.55
                             1354.06  1371.69  1417.57  1432.30  1442.29
                             1453.79  1473.73  1509.94  1525.75  1554.25
                             1597.15  1613.49  1614.11  1620.49  1651.93
                             1672.74  1677.67  1688.96  1701.33  1743.74
                             1760.07  1795.28  1812.62  1843.32  1862.25
                             1879.17  1885.97  1898.58  1911.28  1926.23
                             1935.12  1944.94  1945.41  1960.88  1970.91
                             1989.36  1998.19  2002.84  2016.29  2020.89
                             2032.66  2040.88  2064.27  2126.74  2136.76
                             2138.82  2141.81  2145.69  2150.50  2153.83
                             2157.60  2163.02  2168.30  2171.22  2179.76
                             2184.60  4195.90  4200.04  4292.86  4303.38
                             4328.55  4335.10  4336.39  4346.01  4349.75
                             4356.84  4360.65  4366.91  4372.92  4381.12
                             4390.35  4407.87  4411.03  4414.56  4417.83
                             4422.70  4426.63  4436.72  4437.43  4458.32
                             5042.49  5056.46

 Zero-point correction=                           0.384654 (Hartree/Particle)
 Thermal correction to Energy=                    0.399883
 Thermal correction to Enthalpy=                  0.400827
 Thermal correction to Gibbs Free Energy=         0.341105
 Sum of electronic and zero-point Energies=           -620.191597
 Sum of electronic and thermal Energies=              -620.176368
 Sum of electronic and thermal Enthalpies=            -620.175424
 Sum of electronic and thermal Free Energies=         -620.235146

                     E (Thermal)             CV                S
                      KCal/Mol        Cal/Mol-Kelvin    Cal/Mol-Kelvin
 Total                  250.930             60.249            125.696
 Electronic               0.000              0.000              0.000
 Translational            0.889              2.981             41.933
 Rotational               0.889              2.981             32.992
 Vibrational            249.153             54.287             50.771
 Vibration     1          0.593              1.984              5.998
 Vibration     2          0.594              1.983              5.531
 Vibration     3          0.596              1.976              4.666
 Vibration     4          0.601              1.960              3.798
 Vibration     5          0.605              1.946              3.371
 Vibration     6          0.616              1.911              2.774
 Vibration     7          0.625              1.881              2.454
 Vibration     8          0.636              1.846              2.171
 Vibration     9          0.638              1.839              2.130
 Vibration    10          0.664              1.759              1.717
 Vibration    11          0.677              1.718              1.561
 Vibration    12          0.700              1.651              1.353
 Vibration    13          0.704              1.642              1.327
 Vibration    14          0.720              1.595              1.211
 Vibration    15          0.737              1.547              1.106
 Vibration    16          0.766              1.470              0.962
 Vibration    17          0.806              1.368              0.805
 Vibration    18          0.822              1.329              0.754
 Vibration    19          0.830              1.309              0.729
 Vibration    20          0.860              1.238              0.645
 Vibration    21          0.906              1.138              0.543
 Vibration    22          0.952              1.043              0.459

 Optimization completed.
    -- Stationary point found.
 Normal termination of Gaussian 16 at Thu Jul 18 17:20:31 2024.
 Gaussian 16:  ES64L-G16RevA.03 25-Dec-2016

 ----------------------------------------------------------------------
 # TD(NStates=10, Root=1) B3LYP/6-31G** SCRF=(Solvent=water) volume pop
 =NPA density=current Geom=AllCheck Guess=Read
 ----------------------------------------------------------------------

 Structure from the checkpoint file:  "OXEZLYIDQPBCBB-UHFFFAOYSA-N_conf_3_2.chk"
 ----------------------------------
 OXEZLYIDQPBCBB-UHFFFAOYSA-N_conf_3
 ----------------------------------
 Charge =  0 Multiplicity = 1

                         Standard orientation:
 ---------------------------------------------------------------------
 Center     Atomic      Atomic             Coordinates (Angstroms)
 Number     Number       Type             X           Y           Z
 ---------------------------------------------------------------------
      1          6           0       -2.185618    0.116532   -0.557158
      2          6           0       -0.682744   -0.056900   -0.842063
      3          6           0        0.087549    1.262078   -1.011977
      4          6           0        1.516964    1.166061   -1.584141
      5          6           0        2.621824    0.505783   -0.726274
      6          6           0        2.625838    0.948128    0.745555
      7          6           0        3.920034    0.469087    1.455158
      8          7           0        4.492545   -0.779269    0.909886
      9          6           0        3.443770   -1.658288    0.376512
     10          6           0        2.652123   -1.042601   -0.806054
     11          6           0       -2.917235   -1.239099   -0.572973
     12          6           0       -4.404509   -1.084615   -0.241635
     13          7           0       -4.556078   -0.433640    1.064311
     14          6           0       -3.977289    0.914193    1.058100
     15          6           0       -2.473351    0.837857    0.774136
     16          1           0       -2.613149    0.731833   -1.365862
     17          1           0       -0.571997   -0.654835   -1.757931
     18          1           0       -0.242464   -0.653814   -0.032428
     19          1           0       -0.487477    1.904995   -1.693391
     20          1           0        0.118549    1.799634   -0.056883
     21          1           0        1.839710    2.193769   -1.798492
     22          1           0        1.479962    0.656243   -2.557644
     23          1           0        3.572223    0.855499   -1.156118
     24          1           0        1.747013    0.533937    1.255369
     25          1           0        2.543241    2.038792    0.827082
     26          1           0        3.713931    0.324892    2.524664
     27          1           0        4.693601    1.241666    1.386847
     28          1           0        5.120766   -0.539175    0.145759
     29          1           0        2.760909   -1.885485    1.205095
     30          1           0        3.896579   -2.610864    0.079946
     31          1           0        3.109309   -1.337294   -1.759168
     32          1           0        1.638004   -1.454312   -0.811914
     33          1           0       -2.804924   -1.716936   -1.554072
     34          1           0       -2.457566   -1.907589    0.167773
     35          1           0       -4.890365   -2.066051   -0.202138
     36          1           0       -4.893839   -0.512840   -1.054328
     37          1           0       -5.545449   -0.370055    1.292297
     38          1           0       -4.449205    1.569056    0.299542
     39          1           0       -4.156014    1.375909    2.035694
     40          1           0       -2.057218    1.851273    0.764782
     41          1           0       -1.983534    0.292812    1.593029
 ---------------------------------------------------------------------

 SCF Done:  E(RB3LYP) =  -620.576250951     A.U. after    1 cycles

 Excitation energies and oscillator strengths:

 Excited State   1:      Singlet-A      6.7383 eV  184.00 nm  f=0.0130  <S**2>=0.000
      59 -> 60         0.67209
      59 -> 61         0.10888
      59 -> 62         0.11304
      59 -> 63        -0.12791
 This state for optimization and/or second-order correction.
 Total Energy, E(TD-HF/TD-DFT) =  -620.328624336
 Copying the excited state density for this state as the 1-particle RhoCI density.

 Excited State   2:      Singlet-A      7.1928 eV  172.37 nm  f=0.0321  <S**2>=0.000
      58 -> 61         0.62150
      58 -> 62        -0.27045
      58 -> 63         0.14006
      58 -> 66        -0.12407

 Excited State   3:      Singlet-A      7.4248 eV  166.99 nm  f=0.0318  <S**2>=0.000
      59 -> 60        -0.16107
      59 -> 61         0.34812
      59 -> 62         0.56931
      59 -> 65         0.11623

 Excited State   4:      Singlet-A      7.5450 eV  164.33 nm  f=0.0116  <S**2>=0.000
      58 -> 60         0.67517
      58 -> 62        -0.18682

 Excited State   5:      Singlet-A      7.8523 eV  157.90 nm  f=0.0101  <S**2>=0.000
      59 -> 61         0.55026
      59 -> 62        -0.34714
      59 -> 63        -0.23064
      59 -> 65        -0.12070

 Excited State   6:      Singlet-A      7.8837 eV  157.27 nm  f=0.0455  <S**2>=0.000
      58 -> 60         0.19074
      58 -> 61         0.24423
      58 -> 62         0.57980
      58 -> 63         0.13357
      58 -> 65        -0.19513

 Excited State   7:      Singlet-A      7.9880 eV  155.21 nm  f=0.0449  <S**2>=0.000
      59 -> 60         0.11447
      59 -> 61         0.24157
      59 -> 63         0.58418
      59 -> 65         0.17430
      59 -> 66         0.17429

 Excited State   8:      Singlet-A      8.1665 eV  151.82 nm  f=0.0353  <S**2>=0.000
      58 -> 61        -0.21597
      58 -> 63         0.60426
      58 -> 65        -0.13652
      58 -> 66        -0.21923

 Excited State   9:      Singlet-A      8.2510 eV  150.27 nm  f=0.0653  <S**2>=0.000
      59 -> 63        -0.13581
      59 -> 64         0.61479
      59 -> 66         0.13177
      59 -> 67        -0.24926

 Excited State  10:      Singlet-A      8.4178 eV  147.29 nm  f=0.0014  <S**2>=0.000
      59 -> 63        -0.20623
      59 -> 64        -0.13118
      59 -> 65         0.45160
      59 -> 66         0.13200
      59 -> 68        -0.43665

 The electronic state is 1-A.
 Alpha  occ. eigenvalues --  -14.31131 -14.31031 -10.19938 -10.19938 -10.19927
 Alpha  occ. eigenvalues --  -10.19827 -10.18016 -10.17962 -10.17409 -10.17319
 Alpha  occ. eigenvalues --  -10.17228 -10.17222 -10.17184 -10.17132 -10.16945
 Alpha  occ. eigenvalues --   -0.89996  -0.89781  -0.80896  -0.78852  -0.74272
 Alpha  occ. eigenvalues --   -0.73930  -0.73676  -0.68396  -0.63560  -0.61591
 Alpha  occ. eigenvalues --   -0.61281  -0.59675  -0.56650  -0.54491  -0.52266
 Alpha  occ. eigenvalues --   -0.49997  -0.49460  -0.46384  -0.44498  -0.44417
 Alpha  occ. eigenvalues --   -0.44183  -0.43388  -0.42212  -0.40847  -0.40328
 Alpha  occ. eigenvalues --   -0.40095  -0.38610  -0.38052  -0.37653  -0.37026
 Alpha  occ. eigenvalues --   -0.36415  -0.35109  -0.34422  -0.33954  -0.33809
 Alpha  occ. eigenvalues --   -0.32855  -0.31622  -0.30603  -0.30301  -0.29818
 Alpha  occ. eigenvalues --   -0.29117  -0.28327  -0.21999  -0.21440
 Alpha virt. eigenvalues --    0.07333   0.08723   0.09285   0.10500   0.11737
 Alpha virt. eigenvalues --    0.12260   0.12694   0.13638   0.13834   0.14736
 Alpha virt. eigenvalues --    0.14853   0.15374   0.15773   0.16563   0.16761

 Mulliken charges:
               1
     1  C   -0.066130
     2  C   -0.157666
     3  C   -0.174728
     4  C   -0.189787
     5  C    0.007896
     6  C   -0.160634
     7  C   -0.061479
     8  N   -0.158579
     9  C   -0.069652
    10  C   -0.168144
    11  C   -0.169020
    12  C   -0.051205
    13  N   -0.524904
    14  C   -0.051679
    15  C   -0.165973
    16  H    0.076511
    17  H    0.079862
    18  H    0.073574
    19  H    0.079868
    20  H    0.091607
    21  H    0.072489
    22  H    0.081548
    23  H   -0.043460
    24  H    0.088162
    25  H    0.061671
    26  H    0.154958
    27  H    0.020837
    28  H    0.012474
    29  H    0.113379
    30  H    0.078733
    31  H    0.056626
    32  H    0.120568
    33  H    0.088580
    34  H    0.089024
    35  H    0.094065
    36  H    0.073199
    37  H    0.249029
    38  H    0.073390
    39  H    0.094273
    40  H    0.092982
    41  H    0.087735
 Sum of Mulliken charges =  -0.00000

 Dipole moment (field-independent basis, Debye):
    X=             -1.1404    Y=             -0.7277    Z=              1.2142  Tot=              1.8178
 Quadrupole moment (field-independent basis, Debye-Ang):
   XX=            -97.1108   YY=            -98.0575   ZZ=            -97.8145
   XY=             -6.5787   XZ=              9.5400   YZ=              2.1157

 Summary of Natural Population Analysis:

                                       Natural Population
                Natural  -----------------------------------------------
    Atom  No    Charge         Core      Valence    Rydberg      Total
 -----------------------------------------------------------------------
      C    1   -0.25366      1.99922     4.24105    0.01339     6.25366
      C    2   -0.46134      1.99930     4.44933    0.01271     6.46134
      C    3   -0.46223      1.99934     4.45164    0.01126     6.46223
      C    4   -0.45476      1.99930     4.44281    0.01265     6.45476
      C    5   -0.27098      1.99920     4.25715    0.01463     6.27098
      C    6   -0.47069      1.99927     4.45788    0.01354     6.47069
      C    7   -0.32987      1.99933     4.31158    0.01896     6.32987
      N    8   -0.23678      1.99935     5.22149    0.01593     7.23678
      C    9   -0.33535      1.99935     4.31646    0.01955     6.33535
      C   10   -0.45933      1.99926     4.44637    0.01369     6.45933
      C   11   -0.47250      1.99930     4.46105    0.01215     6.47250
      C   12   -0.26515      1.99935     4.25060    0.01520     6.26515
      N   13   -0.72097      1.99956     5.70603    0.01538     7.72097
      C   14   -0.26488      1.99935     4.25032    0.01521     6.26488
      C   15   -0.47681      1.99930     4.46532    0.01220     6.47681
      H   16    0.23333      0.00000     0.76342    0.00326     0.76667
      H   17    0.22999      0.00000     0.76708    0.00294     0.77001
      H   18    0.21200      0.00000     0.77929    0.00871     0.78800
      H   19    0.22931      0.00000     0.76718    0.00352     0.77069
      H   20    0.22656      0.00000     0.76984    0.00359     0.77344
      H   21    0.22832      0.00000     0.76383    0.00785     0.77168
      H   22    0.23013      0.00000     0.76554    0.00433     0.76987
      H   23    0.14683      0.00000     0.80714    0.04602     0.85317
      H   24    0.22637      0.00000     0.75970    0.01393     0.77363
      H   25    0.21385      0.00000     0.76788    0.01827     0.78615
      H   26    0.27771      0.00000     0.71698    0.00531     0.72229
      H   27    0.16318      0.00000     0.79640    0.04042     0.83682
      H   28    0.19610      0.00000     0.71472    0.08919     0.80390
      H   29    0.23726      0.00000     0.74612    0.01662     0.76274
      H   30    0.22077      0.00000     0.75731    0.02192     0.77923
      H   31    0.20290      0.00000     0.77415    0.02295     0.79710
      H   32    0.25211      0.00000     0.74259    0.00530     0.74789
      H   33    0.24130      0.00000     0.75686    0.00184     0.75870
      H   34    0.23050      0.00000     0.76648    0.00301     0.76950
      H   35    0.23761      0.00000     0.76071    0.00169     0.76239
      H   36    0.19699      0.00000     0.79934    0.00368     0.80301
      H   37    0.39618      0.00000     0.60076    0.00306     0.60382
      H   38    0.19706      0.00000     0.79927    0.00368     0.80294
      H   39    0.23767      0.00000     0.76065    0.00168     0.76233
      H   40    0.24183      0.00000     0.75633    0.00185     0.75817
      H   41    0.22946      0.00000     0.76713    0.00341     0.77054
 =======================================================================
   * Total *   -0.00000     29.98976    87.45576    0.55448   118.00000

 Normal termination of Gaussian 16 at Thu Jul 18 17:51:08 2024.
