 Gaussian 16, Revision A.03,

 -------------------------------------------------------
 # opt=CalcFc B3LYP/6-31G** SCRF=(Solvent=water) scf=xqc
 -------------------------------------------------------

 ----------------------------------
 OXEZLYIDQPBCBB-UHFFFAOYSA-N_conf_1
 ----------------------------------
 Symbolic Z-matrix:
 Charge =  0 Multiplicity = 1

 SCF Done:  E(RB3LYP) =  -620.585076121     A.U. after   11 cycles
 SCF Done:  E(RB3LYP) =  -620.587865554     A.U. after    9 cycles
 SCF Done:  E(RB3LYP) =  -620.587981380     A.U. after    8 cycles
 SCF Done:  E(RB3LYP) =  -620.587986887     A.U. after    8 cycles
 SCF Done:  E(RB3LYP) =  -620.587987894     A.U. after    7 cycles
 SCF Done:  E(RB3LYP) =  -620.587987920     A.U. after    6 cycles
 Optimization completed.
    -- Stationary point found.
 Normal termination of Gaussian 16 at Thu Jul 18 16:50:17 2024.

 ----------------------------------------------------------------------
 # freq B3LYP/6-31G** SCRF=(Solvent=water) volume NMR pop=NPA density=c
 urrent Geom=AllCheck Guess=Read
 ----------------------------------------------------------------------

 Structure from the checkpoint file:  "OXEZLYIDQPBCBB-UHFFFAOYSA-N_conf_1_1.chk"
 ----------------------------------
 OXEZLYIDQPBCBB-UHFFFAOYSA-N_conf_1
 ----------------------------------
 Charge =  0 Multiplicity = 1

 SCF Done:  E(RB3LYP) =  -620.587987920     A.U. after    1 cycles

      1  C    Isotropic =   156.3833   Anisotropy =    15.0938

      2  C    Isotropic =   158.3983   Anisotropy =    32.3838

      3  C    Isotropic =   163.6490   Anisotropy =    21.1053

      4  C    Isotropic =   151.8936   Anisotropy =    38.0454

      5  C    Isotropic =   152.7573   Anisotropy =    17.0829

      6  C    Isotropic =   158.8705   Anisotropy =    10.9979

      7  C    Isotropic =   143.9880   Anisotropy =    30.4749

      8  N    Isotropic =   213.4470   Anisotropy =    41.0886

      9  C    Isotropic =   143.7966   Anisotropy =    30.1547

     10  C    Isotropic =   156.2294   Anisotropy =    16.4975

     11  C    Isotropic =   162.9383   Anisotropy =     7.7268

     12  C    Isotropic =   148.8124   Anisotropy =    39.6606

     13  N    Isotropic =   213.3667   Anisotropy =    42.4381

     14  C    Isotropic =   147.8689   Anisotropy =    36.4756

     15  C    Isotropic =   156.9675   Anisotropy =    11.3482

     16  H    Isotropic =    30.1319   Anisotropy =     6.9642

     17  H    Isotropic =    30.7896   Anisotropy =     5.4368

     18  H    Isotropic =    29.7729   Anisotropy =     5.7694

     19  H    Isotropic =    30.9331   Anisotropy =     5.0538

     20  H    Isotropic =    29.9799   Anisotropy =     7.5489

     21  H    Isotropic =    30.6535   Anisotropy =     3.6496

     22  H    Isotropic =    30.4741   Anisotropy =     4.8160

     23  H    Isotropic =    30.4761   Anisotropy =     4.3008

     24  H    Isotropic =    30.7700   Anisotropy =     6.1814

     25  H    Isotropic =    30.0650   Anisotropy =     7.3007

     26  H    Isotropic =    28.9101   Anisotropy =     8.5530

     27  H    Isotropic =    29.1477   Anisotropy =     7.8920

     28  H    Isotropic =    30.9268   Anisotropy =    15.9126

     29  H    Isotropic =    28.9317   Anisotropy =     8.9939

     30  H    Isotropic =    29.0878   Anisotropy =     8.1226

     31  H    Isotropic =    30.4074   Anisotropy =     7.5198

     32  H    Isotropic =    30.5832   Anisotropy =     6.3526

     33  H    Isotropic =    30.2344   Anisotropy =     8.8617

     34  H    Isotropic =    30.1882   Anisotropy =     7.3792

     35  H    Isotropic =    29.2462   Anisotropy =     8.9185

     36  H    Isotropic =    28.8105   Anisotropy =     6.0728

     37  H    Isotropic =    30.9523   Anisotropy =    15.6669

     38  H    Isotropic =    29.2310   Anisotropy =     9.4138

     39  H    Isotropic =    28.8731   Anisotropy =     6.1811

     40  H    Isotropic =    30.4894   Anisotropy =     7.7383

     41  H    Isotropic =    29.9922   Anisotropy =     8.9577

  Exact polarizability: 209.075   0.736 192.981   0.935   0.434 177.933
 Approx polarizability: 206.163  -0.397 205.667  -1.019  -0.659 199.303

                      1                      2                      3
                      A                      A                      A
 Frequencies --     19.6119                34.8676                57.4784
 Red. masses --      2.9562                 3.7515                 3.5803
 Frc consts  --      0.0007                 0.0027                 0.0070
 IR Inten    --      0.5835                 0.3851                 0.3863

                      4                      5                      6
                      A                      A                      A
 Frequencies --     82.2288               102.7764               137.7078
 Red. masses --      3.2134                 1.9180                 3.1289
 Frc consts  --      0.0128                 0.0119                 0.0350
 IR Inten    --      0.2265                 0.0853                 0.1789

                      7                      8                      9
                      A                      A                      A
 Frequencies --    160.5242               208.1320               214.8856
 Red. masses --      2.7723                 3.0112                 2.4859
 Frc consts  --      0.0421                 0.0769                 0.0676
 IR Inten    --      0.9684                 1.6255                 0.6420

                     10                     11                     12
                      A                      A                      A
 Frequencies --    249.1387               255.1422               342.1727
 Red. masses --      1.7963                 2.3941                 2.5836
 Frc consts  --      0.0657                 0.0918                 0.1782
 IR Inten    --      0.4546                 0.3409                 5.3509

                     13                     14                     15
                      A                      A                      A
 Frequencies --    345.8493               366.8005               400.2720
 Red. masses --      2.0364                 2.0929                 2.1791
 Frc consts  --      0.1435                 0.1659                 0.2057
 IR Inten    --      2.1038                 2.2746                 6.6325

                     16                     17                     18
                      A                      A                      A
 Frequencies --    423.3986               451.3895               464.0037
 Red. masses --      2.0932                 2.6547                 3.0271
 Frc consts  --      0.2211                 0.3187                 0.3840
 IR Inten    --      1.0155                 0.9747                 1.1646

                     19                     20                     21
                      A                      A                      A
 Frequencies --    479.8984               488.9678               518.4437
 Red. masses --      2.9405                 2.3560                 2.3796
 Frc consts  --      0.3990                 0.3319                 0.3768
 IR Inten    --     10.2331                 6.7987                25.4671

                     22                     23                     24
                      A                      A                      A
 Frequencies --    581.7097               632.6720               739.6747
 Red. masses --      1.7455                 1.8713                 1.1848
 Frc consts  --      0.3480                 0.4413                 0.3819
 IR Inten    --     25.5903                35.0348                 7.6715

                     25                     26                     27
                      A                      A                      A
 Frequencies --    773.2431               795.7284               800.8080
 Red. masses --      2.3205                 2.1906                 1.7674
 Frc consts  --      0.8174                 0.8172                 0.6678
 IR Inten    --     10.4532                98.2838                82.4138

                     28                     29                     30
                      A                      A                      A
 Frequencies --    817.6228               819.9984               825.5127
 Red. masses --      1.7343                 1.5686                 1.7279
 Frc consts  --      0.6831                 0.6214                 0.6938
 IR Inten    --     28.9703                 2.2788                19.3227

                     31                     32                     33
                      A                      A                      A
 Frequencies --    862.5861               883.0372               899.9949
 Red. masses --      1.7982                 2.2229                 2.2235
 Frc consts  --      0.7883                 1.0213                 1.0611
 IR Inten    --     17.4946                 2.6377                 0.7660

                     34                     35                     36
                      A                      A                      A
 Frequencies --    908.0411               917.8738               957.9883
 Red. masses --      1.8662                 1.9129                 2.4635
 Frc consts  --      0.9066                 0.9496                 1.3320
 IR Inten    --      2.7365                 1.1358                12.3043

                     37                     38                     39
                      A                      A                      A
 Frequencies --    992.1817              1000.5876              1008.9939
 Red. masses --      1.6500                 1.9174                 1.5291
 Frc consts  --      0.9570                 1.1310                 0.9172
 IR Inten    --      1.8366                 3.7986                 0.3434

                     40                     41                     42
                      A                      A                      A
 Frequencies --   1020.7644              1036.8118              1053.2389
 Red. masses --      1.7245                 2.4686                 2.1025
 Frc consts  --      1.0587                 1.5635                 1.3742
 IR Inten    --      0.8982                 0.7066                 2.6141

                     43                     44                     45
                      A                      A                      A
 Frequencies --   1060.9356              1063.2255              1065.1774
 Red. masses --      1.6125                 1.7379                 1.7544
 Frc consts  --      1.0694                 1.1575                 1.1728
 IR Inten    --      3.1064                 1.8915                11.1581

                     46                     47                     48
                      A                      A                      A
 Frequencies --   1082.9019              1107.1160              1113.3799
 Red. masses --      1.9374                 1.8079                 2.1822
 Frc consts  --      1.3386                 1.3056                 1.5938
 IR Inten    --     11.2545                14.5570                11.6167

                     49                     50                     51
                      A                      A                      A
 Frequencies --   1121.7943              1142.3268              1161.4426
 Red. masses --      2.4442                 3.1668                 2.8902
 Frc consts  --      1.8122                 2.4347                 2.2971
 IR Inten    --     10.6441                26.0046                22.2708

                     52                     53                     54
                      A                      A                      A
 Frequencies --   1172.9420              1173.6364              1183.6829
 Red. masses --      1.2548                 2.0581                 1.2362
 Frc consts  --      1.0171                 1.6703                 1.0205
 IR Inten    --      5.9697                 7.6023                 3.8795

                     55                     56                     57
                      A                      A                      A
 Frequencies --   1193.5497              1208.9617              1225.9965
 Red. masses --      1.4018                 1.2404                 1.2037
 Frc consts  --      1.1766                 1.0681                 1.0659
 IR Inten    --      7.9479                 7.9649                 0.7594

                     58                     59                     60
                      A                      A                      A
 Frequencies --   1267.0244              1270.6887              1290.1254
 Red. masses --      1.2281                 1.3330                 1.2749
 Frc consts  --      1.1616                 1.2681                 1.2502
 IR Inten    --      1.0227                 5.0167                 0.9096

                     61                     62                     63
                      A                      A                      A
 Frequencies --   1303.9599              1313.7488              1315.2204
 Red. masses --      1.2126                 1.2619                 1.2179
 Frc consts  --      1.2148                 1.2832                 1.2412
 IR Inten    --      2.1817                 3.4078                 5.9716

                     64                     65                     66
                      A                      A                      A
 Frequencies --   1322.9746              1331.3864              1345.1114
 Red. masses --      1.2690                 1.2014                 1.2885
 Frc consts  --      1.3087                 1.2547                 1.3736
 IR Inten    --      3.7149                 1.0442                 0.7254

                     67                     68                     69
                      A                      A                      A
 Frequencies --   1350.8496              1351.7771              1353.6681
 Red. masses --      1.2966                 1.2849                 1.3012
 Frc consts  --      1.3940                 1.3833                 1.4048
 IR Inten    --     49.4343                36.2700                 9.1323

                     70                     71                     72
                      A                      A                      A
 Frequencies --   1369.9936              1378.6965              1386.1315
 Red. masses --      1.3372                 1.3602                 1.4901
 Frc consts  --      1.4787                 1.5233                 1.6869
 IR Inten    --      9.3696                 9.3937                 2.7361

                     73                     74                     75
                      A                      A                      A
 Frequencies --   1389.2016              1400.2129              1406.1727
 Red. masses --      1.4546                 1.4479                 1.5930
 Frc consts  --      1.6540                 1.6726                 1.8559
 IR Inten    --      3.6034                 8.6742                 1.2024

                     76                     77                     78
                      A                      A                      A
 Frequencies --   1412.2998              1434.9131              1438.2717
 Red. masses --      1.5887                 1.4706                 1.4823
 Frc consts  --      1.8670                 1.7840                 1.8066
 IR Inten    --      1.2209                14.6345                 4.0133

                     79                     80                     81
                      A                      A                      A
 Frequencies --   1477.5335              1479.4100              1484.6901
 Red. masses --      1.1449                 1.1394                 1.1164
 Frc consts  --      1.4726                 1.4693                 1.4499
 IR Inten    --      3.6655                 7.1106                 1.5216

                     82                     83                     84
                      A                      A                      A
 Frequencies --   1486.7889              1487.9385              1490.9103
 Red. masses --      1.1700                 1.2209                 1.0983
 Frc consts  --      1.5238                 1.5926                 1.4383
 IR Inten    --      0.2254                 0.4671                 5.7736

                     85                     86                     87
                      A                      A                      A
 Frequencies --   1493.2871              1495.1475              1506.9845
 Red. masses --      1.0970                 1.0957                 1.1169
 Frc consts  --      1.4412                 1.4431                 1.4944
 IR Inten    --      4.9536                 6.8789                 1.2574

                     88                     89                     90
                      A                      A                      A
 Frequencies --   1510.2401              1515.4151              1518.2236
 Red. masses --      1.1102                 1.1029                 1.1054
 Frc consts  --      1.4919                 1.4923                 1.5012
 IR Inten    --      0.5624                 2.9030                 2.6697

                     91                     92                     93
                      A                      A                      A
 Frequencies --   1522.8422              2916.1020              2919.0459
 Red. masses --      1.0994                 1.0736                 1.0723
 Frc consts  --      1.5022                 5.3791                 5.3833
 IR Inten    --      6.3453                46.4480               237.3653

                     94                     95                     96
                      A                      A                      A
 Frequencies --   2932.7769              2935.5309              2984.7625
 Red. masses --      1.0732                 1.0723                 1.0817
 Frc consts  --      5.4389                 5.4444                 5.6776
 IR Inten    --     59.8597               201.6896                39.5891

                     97                     98                     99
                      A                      A                      A
 Frequencies --   3003.8124              3007.8413              3014.2424
 Red. masses --      1.0598                 1.0813                 1.0633
 Frc consts  --      5.6341                 5.7640                 5.6921
 IR Inten    --     24.1933                24.8216                10.6267

                    100                    101                    102
                      A                      A                      A
 Frequencies --   3017.4898              3022.8672              3027.9778
 Red. masses --      1.0682                 1.0618                 1.0637
 Frc consts  --      5.7304                 5.7164                 5.7460
 IR Inten    --    121.8644                35.8656                90.8284

                    103                    104                    105
                      A                      A                      A
 Frequencies --   3031.7022              3038.5613              3040.5046
 Red. masses --      1.0617                 1.0944                 1.0703
 Frc consts  --      5.7495                 5.9535                 5.8296
 IR Inten    --     47.6681                15.0408               105.6432

                    106                    107                    108
                      A                      A                      A
 Frequencies --   3055.5347              3064.4154              3065.7174
 Red. masses --      1.0944                 1.0880                 1.0880
 Frc consts  --      6.0201                 6.0197                 6.0250
 IR Inten    --     40.5643               127.1945               123.4072

                    109                    110                    111
                      A                      A                      A
 Frequencies --   3067.4715              3068.1641              3070.7563
 Red. masses --      1.0883                 1.0888                 1.1031
 Frc consts  --      6.0336                 6.0386                 6.1285
 IR Inten    --     69.8411                70.4013                34.1751

                    112                    113                    114
                      A                      A                      A
 Frequencies --   3074.3071              3075.6198              3083.5369
 Red. masses --      1.1037                 1.1022                 1.0993
 Frc consts  --      6.1461                 6.1431                 6.1581
 IR Inten    --     89.3801               162.5151                95.0936

                    115                    116                    117
                      A                      A                      A
 Frequencies --   3087.3092              3512.7733              3515.2050
 Red. masses --      1.0988                 1.0748                 1.0748
 Frc consts  --      6.1705                 7.8141                 7.8249
 IR Inten    --     84.0638                 1.3791                 1.2687

 - Thermochemistry -
 -------------------
 Temperature   298.150 Kelvin.  Pressure   1.00000 Atm.
 Atom     1 has atomic number  6 and mass  12.00000

 Molecular mass:   210.20960 amu.
 Principal axes and moments of inertia in atomic units:
                           1         2         3
     Eigenvalues --  1091.070299892.19201**********
           X            1.00000   0.00047   0.00246
           Y           -0.00051   0.99990   0.01420
           Z           -0.00245  -0.01420   0.99990
 This molecule is an asymmetric top.
 Rotational symmetry number  1.
 Warning -- assumption of classical behavior for rotation
           may cause significant error
 Rotational temperatures (Kelvin)      0.07938     0.00876     0.00834
 Rotational constants (GHZ):           1.65410     0.18244     0.17387
 Zero-point vibrational energy    1009323.4 (Joules/Mol)
                                  241.23408 (Kcal/Mol)
 Warning -- explicit consideration of  22 degrees of freedom as
           vibrations may cause significant error
 Vibrational temperatures:     28.22    50.17    82.70   118.31   147.87
          (Kelvin)            198.13   230.96   299.46   309.17   358.46
                              367.09   492.31   497.60   527.74   575.90
                              609.18   649.45   667.60   690.47   703.52
                              745.92   836.95   910.27  1064.23  1112.52
                             1144.88  1152.18  1176.38  1179.79  1187.73
                             1241.07  1270.49  1294.89  1306.47  1320.62
                             1378.33  1427.53  1439.62  1451.72  1468.65
                             1491.74  1515.38  1526.45  1529.74  1532.55
                             1558.05  1592.89  1601.91  1614.01  1643.55
                             1671.06  1687.60  1688.60  1703.06  1717.25
                             1739.43  1763.94  1822.97  1828.24  1856.20
                             1876.11  1890.19  1892.31  1903.47  1915.57
                             1935.32  1943.57  1944.91  1947.63  1971.12
                             1983.64  1994.33  1998.75  2014.59  2023.17
                             2031.98  2064.52  2069.35  2125.84  2128.54
                             2136.14  2139.16  2140.81  2145.09  2148.51
                             2151.18  2168.21  2172.90  2180.34  2184.39
                             2191.03  4195.62  4199.86  4219.61  4223.57
                             4294.41  4321.82  4327.61  4336.82  4341.49
                             4349.23  4356.58  4361.94  4371.81  4374.61
                             4396.23  4409.01  4410.88  4413.41  4414.40
                             4418.13  4423.24  4425.13  4436.52  4441.95
                             5054.10  5057.60

 Zero-point correction=                           0.384431 (Hartree/Particle)
 Thermal correction to Energy=                    0.399549
 Thermal correction to Enthalpy=                  0.400493
 Thermal correction to Gibbs Free Energy=         0.340673
 Sum of electronic and zero-point Energies=           -620.203557
 Sum of electronic and thermal Energies=              -620.188439
 Sum of electronic and thermal Enthalpies=            -620.187495
 Sum of electronic and thermal Free Energies=         -620.247315

                     E (Thermal)             CV                S
                      KCal/Mol        Cal/Mol-Kelvin    Cal/Mol-Kelvin
 Total                  250.720             60.002            125.901
 Electronic               0.000              0.000              0.000
 Translational            0.889              2.981             41.933
 Rotational               0.889              2.981             33.082
 Vibrational            248.943             54.041             50.886
 Vibration     1          0.593              1.986              6.673
 Vibration     2          0.594              1.983              5.531
 Vibration     3          0.596              1.975              4.542
 Vibration     4          0.600              1.961              3.837
 Vibration     5          0.605              1.947              3.401
 Vibration     6          0.614              1.916              2.835
 Vibration     7          0.622              1.891              2.544
 Vibration     8          0.641              1.828              2.060
 Vibration     9          0.645              1.818              2.002
 Vibration    10          0.662              1.764              1.737
 Vibration    11          0.666              1.754              1.695
 Vibration    12          0.721              1.591              1.202
 Vibration    13          0.724              1.584              1.185
 Vibration    14          0.740              1.541              1.093
 Vibration    15          0.766              1.470              0.962
 Vibration    16          0.786              1.419              0.880
 Vibration    17          0.810              1.358              0.792
 Vibration    18          0.822              1.330              0.755
 Vibration    19          0.836              1.295              0.710
 Vibration    20          0.845              1.275              0.686
 Vibration    21          0.873              1.209              0.614
 Vibration    22          0.938              1.071              0.482

 Optimization completed.
    -- Stationary point found.
 Normal termination of Gaussian 16 at Thu Jul 18 17:39:21 2024.
 Gaussian 16:  ES64L-G16RevA.03 25-Dec-2016

 ----------------------------------------------------------------------
 # TD(NStates=10, Root=1) B3LYP/6-31G** SCRF=(Solvent=water) volume pop
 =NPA density=current Geom=AllCheck Guess=Read
 ----------------------------------------------------------------------

 Structure from the checkpoint file:  "OXEZLYIDQPBCBB-UHFFFAOYSA-N_conf_1_2.chk"
 ----------------------------------
 OXEZLYIDQPBCBB-UHFFFAOYSA-N_conf_1
 ----------------------------------
 Charge =  0 Multiplicity = 1

                         Standard orientation:
 ---------------------------------------------------------------------
 Center     Atomic      Atomic             Coordinates (Angstroms)
 Number     Number       Type             X           Y           Z
 ---------------------------------------------------------------------
      1          6           0       -2.659217   -0.313475    0.928323
      2          6           0       -1.460467   -0.828122    0.101429
      3          6           0       -0.096626   -0.272065    0.536040
      4          6           0        1.070620   -0.878899   -0.255544
      5          6           0        2.471721   -0.427091    0.191465
      6          6           0        2.726934    1.076695   -0.029753
      7          6           0        4.159693    1.465243    0.350194
      8          7           0        5.117371    0.661268   -0.416616
      9          6           0        4.973038   -0.767704   -0.117775
     10          6           0        3.572041   -1.241044   -0.516270
     11          6           0       -2.957435    1.191390    0.729377
     12          6           0       -3.629390    1.481096   -0.618088
     13          7           0       -4.863659    0.694575   -0.736963
     14          6           0       -4.585813   -0.746771   -0.701601
     15          6           0       -3.950722   -1.114713    0.644382
     16          1           0       -2.400801   -0.466434    1.985940
     17          1           0       -1.432747   -1.923647    0.187117
     18          1           0       -1.609304   -0.617055   -0.965373
     19          1           0        0.050113   -0.472925    1.607298
     20          1           0       -0.088544    0.818608    0.425931
     21          1           0        0.945180   -0.648184   -1.323866
     22          1           0        1.017595   -1.974102   -0.175165
     23          1           0        2.561219   -0.622888    1.272567
     24          1           0        2.562031    1.318090   -1.089023
     25          1           0        2.023724    1.680978    0.553928
     26          1           0        4.336932    2.523984    0.130012
     27          1           0        4.285088    1.336348    1.443175
     28          1           0        6.062325    0.956796   -0.183017
     29          1           0        5.735945   -1.321149   -0.676814
     30          1           0        5.132640   -0.989631    0.955598
     31          1           0        3.462036   -2.307129   -0.282127
     32          1           0        3.458225   -1.134691   -1.603786
     33          1           0       -3.635472    1.522828    1.525993
     34          1           0       -2.043874    1.788891    0.821362
     35          1           0       -3.886377    2.544384   -0.684294
     36          1           0       -2.919222    1.273527   -1.440458
     37          1           0       -5.318923    0.923162   -1.617601
     38          1           0       -5.530939   -1.286869   -0.828444
     39          1           0       -3.921896   -1.067123   -1.526215
     40          1           0       -3.744881   -2.191625    0.674914
     41          1           0       -4.682329   -0.902283    1.434317
 ---------------------------------------------------------------------

 SCF Done:  E(RB3LYP) =  -620.587987920     A.U. after    1 cycles

 Excitation energies and oscillator strengths:

 Excited State   1:      Singlet-A      7.0273 eV  176.43 nm  f=0.0355  <S**2>=0.000
      59 -> 60         0.66381
      59 -> 61         0.12789
      59 -> 63        -0.16101
      59 -> 66        -0.10085
 This state for optimization and/or second-order correction.
 Total Energy, E(TD-HF/TD-DFT) =  -620.329740018
 Copying the excited state density for this state as the 1-particle RhoCI density.

 Excited State   2:      Singlet-A      7.1910 eV  172.42 nm  f=0.0324  <S**2>=0.000
      58 -> 60        -0.12016
      58 -> 61         0.65791
      58 -> 63         0.18408

 Excited State   3:      Singlet-A      7.7447 eV  160.09 nm  f=0.0050  <S**2>=0.000
      58 -> 60         0.67795
      58 -> 63         0.16245

 Excited State   4:      Singlet-A      7.7631 eV  159.71 nm  f=0.0526  <S**2>=0.000
      59 -> 62         0.64422
      59 -> 63        -0.18483
      59 -> 65         0.17929

 Excited State   5:      Singlet-A      7.9005 eV  156.93 nm  f=0.0079  <S**2>=0.000
      59 -> 60        -0.19774
      59 -> 61         0.58069
      59 -> 63        -0.28881
      59 -> 66        -0.11370

 Excited State   6:      Singlet-A      8.0304 eV  154.39 nm  f=0.0707  <S**2>=0.000
      58 -> 60        -0.13249
      58 -> 61        -0.11451
      58 -> 62         0.47375
      58 -> 63         0.30911
      58 -> 65        -0.36041
      58 -> 66        -0.11094

 Excited State   7:      Singlet-A      8.1501 eV  152.13 nm  f=0.0183  <S**2>=0.000
      59 -> 61         0.37325
      59 -> 62         0.16914
      59 -> 63         0.48452
      59 -> 66         0.26247

 Excited State   8:      Singlet-A      8.2037 eV  151.13 nm  f=0.0333  <S**2>=0.000
      58 -> 61        -0.20876
      58 -> 62        -0.21010
      58 -> 63         0.49768
      58 -> 65         0.30182
      58 -> 66        -0.21361

 Excited State   9:      Singlet-A      8.4069 eV  147.48 nm  f=0.0200  <S**2>=0.000
      59 -> 64         0.64990
      59 -> 66        -0.13037
      59 -> 67        -0.19063

 Excited State  10:      Singlet-A      8.4298 eV  147.08 nm  f=0.0225  <S**2>=0.000
      58 -> 62         0.11297
      58 -> 64         0.60614
      58 -> 65         0.20544
      58 -> 67         0.21424
      58 -> 68        -0.14258

 The electronic state is 1-A.
 Alpha  occ. eigenvalues --  -14.31129 -14.31070 -10.19938 -10.19924 -10.19869
 Alpha  occ. eigenvalues --  -10.19860 -10.18035 -10.17973 -10.17273 -10.17242
 Alpha  occ. eigenvalues --  -10.17242 -10.17236 -10.17231 -10.17221 -10.17157
 Alpha  occ. eigenvalues --   -0.89996  -0.89885  -0.80981  -0.79138  -0.74531
 Alpha  occ. eigenvalues --   -0.74191  -0.74091  -0.68021  -0.62875  -0.61296
 Alpha  occ. eigenvalues --   -0.61173  -0.59733  -0.57061  -0.54476  -0.52004
 Alpha  occ. eigenvalues --   -0.50069  -0.49831  -0.46843  -0.44647  -0.44232
 Alpha  occ. eigenvalues --   -0.44061  -0.43732  -0.42139  -0.41386  -0.41109
 Alpha  occ. eigenvalues --   -0.39851  -0.38900  -0.38621  -0.37662  -0.37258
 Alpha  occ. eigenvalues --   -0.35372  -0.35228  -0.34329  -0.33768  -0.33726
 Alpha  occ. eigenvalues --   -0.32696  -0.31255  -0.31092  -0.30083  -0.29756
 Alpha  occ. eigenvalues --   -0.29338  -0.28459  -0.21997  -0.21840
 Alpha virt. eigenvalues --    0.07918   0.08771   0.10022   0.10599   0.11477
 Alpha virt. eigenvalues --    0.11642   0.12861   0.13889   0.13987   0.14646
 Alpha virt. eigenvalues --    0.15026   0.15422   0.16625   0.16729   0.17382

 Mulliken charges:
               1
     1  C   -0.054979
     2  C   -0.130266
     3  C   -0.176026
     4  C   -0.170545
     5  C   -0.060353
     6  C   -0.165497
     7  C   -0.052055
     8  N   -0.524747
     9  C   -0.051534
    10  C   -0.168567
    11  C   -0.167200
    12  C   -0.022191
    13  N   -0.141623
    14  C   -0.046062
    15  C   -0.170827
    16  H    0.058081
    17  H    0.055162
    18  H    0.020492
    19  H    0.076726
    20  H    0.073293
    21  H    0.080388
    22  H    0.081112
    23  H    0.075787
    24  H    0.087894
    25  H    0.092705
    26  H    0.094129
    27  H    0.073291
    28  H    0.248916
    29  H    0.093998
    30  H    0.073207
    31  H    0.088589
    32  H    0.088909
    33  H    0.096627
    34  H    0.066255
    35  H    0.024710
    36  H    0.095275
    37  H    0.020067
    38  H    0.040872
    39  H    0.125398
    40  H    0.067078
    41  H    0.103511
 Sum of Mulliken charges =  -0.00000

 Dipole moment (field-independent basis, Debye):
    X=             -1.1193    Y=             -0.0112    Z=              1.2373  Tot=              1.6685
 Quadrupole moment (field-independent basis, Debye-Ang):
   XX=            -88.0699   YY=            -98.4197   ZZ=           -101.0593
   XY=              0.4609   XZ=              3.9314   YZ=              1.8787

 Summary of Natural Population Analysis:

                                       Natural Population
                Natural  -----------------------------------------------
    Atom  No    Charge         Core      Valence    Rydberg      Total
 -----------------------------------------------------------------------
      C    1   -0.25785      1.99922     4.24376    0.01487     6.25785
      C    2   -0.46890      1.99930     4.45617    0.01343     6.46890
      C    3   -0.45931      1.99933     4.44771    0.01226     6.45931
      C    4   -0.45480      1.99931     4.44267    0.01282     6.45480
      C    5   -0.25379      1.99922     4.24146    0.01312     6.25379
      C    6   -0.47615      1.99930     4.46464    0.01221     6.47615
      C    7   -0.26494      1.99935     4.25040    0.01519     6.26494
      N    8   -0.72087      1.99956     5.70592    0.01539     7.72087
      C    9   -0.26527      1.99935     4.25073    0.01519     6.26527
      C   10   -0.47222      1.99930     4.46085    0.01207     6.47222
      C   11   -0.47741      1.99929     4.46497    0.01315     6.47741
      C   12   -0.33429      1.99928     4.31689    0.01812     6.33429
      N   13   -0.19911      1.99934     5.18790    0.01188     7.19911
      C   14   -0.33485      1.99928     4.31712    0.01846     6.33485
      C   15   -0.47238      1.99930     4.46024    0.01285     6.47238
      H   16    0.22901      0.00000     0.76014    0.01085     0.77099
      H   17    0.21380      0.00000     0.77636    0.00983     0.78620
      H   18    0.17808      0.00000     0.79939    0.02252     0.82192
      H   19    0.22261      0.00000     0.77276    0.00464     0.77739
      H   20    0.20998      0.00000     0.78090    0.00912     0.79002
      H   21    0.22482      0.00000     0.77164    0.00354     0.77518
      H   22    0.23068      0.00000     0.76670    0.00262     0.76932
      H   23    0.23329      0.00000     0.76352    0.00319     0.76671
      H   24    0.22983      0.00000     0.76704    0.00313     0.77017
      H   25    0.24130      0.00000     0.75676    0.00194     0.75870
      H   26    0.23758      0.00000     0.76074    0.00168     0.76242
      H   27    0.19699      0.00000     0.79935    0.00366     0.80301
      H   28    0.39608      0.00000     0.60085    0.00306     0.60392
      H   29    0.23755      0.00000     0.76077    0.00168     0.76245
      H   30    0.19698      0.00000     0.79938    0.00364     0.80302
      H   31    0.24125      0.00000     0.75694    0.00181     0.75875
      H   32    0.23042      0.00000     0.76658    0.00300     0.76958
      H   33    0.23905      0.00000     0.75463    0.00632     0.76095
      H   34    0.21324      0.00000     0.77284    0.01392     0.78676
      H   35    0.17764      0.00000     0.78860    0.03376     0.82236
      H   36    0.23425      0.00000     0.73142    0.03433     0.76575
      H   37    0.19535      0.00000     0.71235    0.09230     0.80465
      H   38    0.18736      0.00000     0.78231    0.03034     0.81264
      H   39    0.25516      0.00000     0.72016    0.02468     0.74484
      H   40    0.21629      0.00000     0.77048    0.01323     0.78371
      H   41    0.24357      0.00000     0.75171    0.00472     0.75643
 =======================================================================
   * Total *    0.00000     29.98972    87.45576    0.55452   118.00000

 Normal termination of Gaussian 16 at Thu Jul 18 18:26:11 2024.
