 Gaussian 16, Revision A.03,

 -------------------------------------------------------
 # opt=CalcFc B3LYP/6-31G** SCRF=(Solvent=water) scf=xqc
 -------------------------------------------------------

 ----------------------------------
 OXEZLYIDQPBCBB-UHFFFAOYSA-N_conf_0
 ----------------------------------
 Symbolic Z-matrix:
 Charge =  0 Multiplicity = 1

 SCF Done:  E(RB3LYP) =  -620.573685741     A.U. after   11 cycles
 SCF Done:  E(RB3LYP) =  -620.576496658     A.U. after    9 cycles
 SCF Done:  E(RB3LYP) =  -620.576834985     A.U. after    9 cycles
 SCF Done:  E(RB3LYP) =  -620.576881104     A.U. after    8 cycles
 SCF Done:  E(RB3LYP) =  -620.576888032     A.U. after    8 cycles
 SCF Done:  E(RB3LYP) =  -620.576890976     A.U. after    7 cycles
 SCF Done:  E(RB3LYP) =  -620.576891737     A.U. after    6 cycles
 SCF Done:  E(RB3LYP) =  -620.576891697     A.U. after    5 cycles
 SCF Done:  E(RB3LYP) =  -620.576891619     A.U. after    5 cycles
 Optimization completed.
    -- Stationary point found.
 Normal termination of Gaussian 16 at Thu Jul 18 16:22:44 2024.

 ----------------------------------------------------------------------
 # freq B3LYP/6-31G** SCRF=(Solvent=water) volume NMR pop=NPA density=c
 urrent Geom=AllCheck Guess=Read
 ----------------------------------------------------------------------

 Structure from the checkpoint file:  "OXEZLYIDQPBCBB-UHFFFAOYSA-N_conf_0_1.chk"
 ----------------------------------
 OXEZLYIDQPBCBB-UHFFFAOYSA-N_conf_0
 ----------------------------------
 Charge =  0 Multiplicity = 1

 SCF Done:  E(RB3LYP) =  -620.576891619     A.U. after    1 cycles

      1  C    Isotropic =   159.6358   Anisotropy =    12.3998

      2  C    Isotropic =   154.3595   Anisotropy =    31.6049

      3  C    Isotropic =   167.0765   Anisotropy =    19.7801

      4  C    Isotropic =   160.5327   Anisotropy =    22.1827

      5  C    Isotropic =   161.1364   Anisotropy =     6.3650

      6  C    Isotropic =   163.1607   Anisotropy =    11.4224

      7  C    Isotropic =   149.5534   Anisotropy =    38.6252

      8  N    Isotropic =   217.1303   Anisotropy =    57.6874

      9  C    Isotropic =   148.8002   Anisotropy =    36.6197

     10  C    Isotropic =   156.4195   Anisotropy =    14.3390

     11  C    Isotropic =   159.9380   Anisotropy =    16.6108

     12  C    Isotropic =   150.4613   Anisotropy =    32.0348

     13  N    Isotropic =   234.2892   Anisotropy =    48.3590

     14  C    Isotropic =   147.3734   Anisotropy =    35.3486

     15  C    Isotropic =   161.3185   Anisotropy =    22.1619

     16  H    Isotropic =    30.2392   Anisotropy =     5.1117

     17  H    Isotropic =    30.9891   Anisotropy =     4.1299

     18  H    Isotropic =    30.1744   Anisotropy =     7.8825

     19  H    Isotropic =    30.1854   Anisotropy =     7.5583

     20  H    Isotropic =    30.3915   Anisotropy =     5.1015

     21  H    Isotropic =    29.5103   Anisotropy =     6.5683

     22  H    Isotropic =    30.7172   Anisotropy =     6.4268

     23  H    Isotropic =    29.7652   Anisotropy =     7.3952

     24  H    Isotropic =    30.4243   Anisotropy =     8.0553

     25  H    Isotropic =    30.1510   Anisotropy =     6.9592

     26  H    Isotropic =    29.2421   Anisotropy =     9.1933

     27  H    Isotropic =    29.0124   Anisotropy =     5.8556

     28  H    Isotropic =    31.5585   Anisotropy =    12.8101

     29  H    Isotropic =    29.0080   Anisotropy =     6.2681

     30  H    Isotropic =    29.2367   Anisotropy =     9.5893

     31  H    Isotropic =    30.1309   Anisotropy =     8.2692

     32  H    Isotropic =    30.6278   Anisotropy =     7.2787

     33  H    Isotropic =    29.9504   Anisotropy =     6.7181

     34  H    Isotropic =    30.8342   Anisotropy =     6.1048

     35  H    Isotropic =    29.0901   Anisotropy =     9.5582

     36  H    Isotropic =    29.2990   Anisotropy =     8.5935

     37  H    Isotropic =    31.3039   Anisotropy =    13.2649

     38  H    Isotropic =    28.9255   Anisotropy =     9.6728

     39  H    Isotropic =    29.0636   Anisotropy =     8.8415

     40  H    Isotropic =    30.5620   Anisotropy =     6.8315

     41  H    Isotropic =    30.5020   Anisotropy =     6.7996

  Exact polarizability: 202.552  -1.216 187.263  -3.044  -1.668 182.792
 Approx polarizability: 200.707  -2.658 204.760  -2.207  -2.331 202.210

                      1                      2                      3
                      A                      A                      A
 Frequencies --     23.1119                26.3987                52.7099
 Red. masses --      3.1263                 3.7053                 3.6940
 Frc consts  --      0.0010                 0.0015                 0.0060
 IR Inten    --      0.3589                 0.2769                 0.6880

                      4                      5                      6
                      A                      A                      A
 Frequencies --     80.4312               104.4163               124.0623
 Red. masses --      3.0070                 2.0513                 3.6821
 Frc consts  --      0.0115                 0.0132                 0.0334
 IR Inten    --      0.7127                 0.7038                 1.1222

                      7                      8                      9
                      A                      A                      A
 Frequencies --    142.5698               189.1823               196.4702
 Red. masses --      3.2258                 2.2888                 1.8584
 Frc consts  --      0.0386                 0.0483                 0.0423
 IR Inten    --      0.0160                 0.0706                 0.0942

                     10                     11                     12
                      A                      A                      A
 Frequencies --    247.1750               275.5456               306.6371
 Red. masses --      2.1628                 1.8457                 1.9592
 Frc consts  --      0.0779                 0.0826                 0.1085
 IR Inten    --      2.9552                10.5268                 1.4333

                     13                     14                     15
                      A                      A                      A
 Frequencies --    334.8723               353.3206               397.1377
 Red. masses --      2.1517                 2.7581                 2.0417
 Frc consts  --      0.1422                 0.2029                 0.1897
 IR Inten    --      4.5012                 0.2959                 7.0640

                     16                     17                     18
                      A                      A                      A
 Frequencies --    418.0242               421.7083               473.8952
 Red. masses --      2.1250                 2.1769                 2.9747
 Frc consts  --      0.2188                 0.2281                 0.3936
 IR Inten    --      0.5671                 1.4858                 1.1270

                     19                     20                     21
                      A                      A                      A
 Frequencies --    498.8891               508.3997               541.7359
 Red. masses --      3.0826                 3.8207                 2.7171
 Frc consts  --      0.4520                 0.5818                 0.4698
 IR Inten    --      1.8650                 2.6404                 0.4811

                     22                     23                     24
                      A                      A                      A
 Frequencies --    620.7580               640.8751               720.0804
 Red. masses --      1.6401                 1.8663                 1.5537
 Frc consts  --      0.3724                 0.4516                 0.4747
 IR Inten    --      0.2248                 5.1924                 4.4891

                     25                     26                     27
                      A                      A                      A
 Frequencies --    779.7584               794.5832               801.1750
 Red. masses --      2.1746                 1.6667                 1.6644
 Frc consts  --      0.7790                 0.6200                 0.6295
 IR Inten    --     16.5095               139.9743                34.8769

                     28                     29                     30
                      A                      A                      A
 Frequencies --    807.1930               813.5984               824.9549
 Red. masses --      1.6265                 1.8559                 2.0034
 Frc consts  --      0.6244                 0.7238                 0.8033
 IR Inten    --      9.1597               108.4564                14.4241

                     31                     32                     33
                      A                      A                      A
 Frequencies --    861.4701               873.7035               880.1444
 Red. masses --      1.8590                 2.4830                 2.0187
 Frc consts  --      0.8128                 1.1168                 0.9214
 IR Inten    --     21.6795                 6.2043                33.0508

                     34                     35                     36
                      A                      A                      A
 Frequencies --    904.8794               922.8633               949.0039
 Red. masses --      1.7948                 2.2018                 1.8994
 Frc consts  --      0.8659                 1.1049                 1.0079
 IR Inten    --     12.4806                10.9859                15.7198

                     37                     38                     39
                      A                      A                      A
 Frequencies --    954.0014               977.3902               985.4564
 Red. masses --      1.5926                 2.0068                 1.4878
 Frc consts  --      0.8540                 1.1295                 0.8513
 IR Inten    --      9.6223                18.0912                 4.4534

                     40                     41                     42
                      A                      A                      A
 Frequencies --   1009.6843              1013.1095              1022.0394
 Red. masses --      2.1254                 2.1511                 1.9133
 Frc consts  --      1.2766                 1.3008                 1.1775
 IR Inten    --     11.9159                15.5530                 3.0872

                     43                     44                     45
                      A                      A                      A
 Frequencies --   1029.2445              1052.5362              1074.3327
 Red. masses --      2.0431                 2.2762                 1.8241
 Frc consts  --      1.2752                 1.4857                 1.2405
 IR Inten    --      3.4453                 1.6320                 7.2473

                     46                     47                     48
                      A                      A                      A
 Frequencies --   1081.7652              1105.8431              1107.7337
 Red. masses --      2.0830                 2.3895                 3.2548
 Frc consts  --      1.4362                 1.7216                 2.3531
 IR Inten    --      5.7001                15.7864                14.7487

                     49                     50                     51
                      A                      A                      A
 Frequencies --   1119.0547              1134.7047              1141.4348
 Red. masses --      2.4059                 2.4567                 1.2953
 Frc consts  --      1.7751                 1.8637                 0.9943
 IR Inten    --      8.7879                21.8074                 5.9009

                     52                     53                     54
                      A                      A                      A
 Frequencies --   1162.9179              1176.9645              1188.4411
 Red. masses --      1.1580                 1.8122                 1.7355
 Frc consts  --      0.9227                 1.4791                 1.4442
 IR Inten    --      0.6019                14.0861                 8.5671

                     55                     56                     57
                      A                      A                      A
 Frequencies --   1205.9717              1223.9184              1248.3191
 Red. masses --      1.4343                 1.5746                 1.3607
 Frc consts  --      1.2290                 1.3897                 1.2492
 IR Inten    --      9.2954                10.0486                 4.6801

                     58                     59                     60
                      A                      A                      A
 Frequencies --   1263.5758              1280.3075              1291.5015
 Red. masses --      1.2164                 1.2637                 1.2589
 Frc consts  --      1.1443                 1.2204                 1.2372
 IR Inten    --      9.3233                 1.4034                 4.9017

                     61                     62                     63
                      A                      A                      A
 Frequencies --   1297.3100              1320.9656              1327.4423
 Red. masses --      1.2790                 1.2787                 1.3496
 Frc consts  --      1.2683                 1.3146                 1.4011
 IR Inten    --     13.6958                 4.0337                 4.3011

                     64                     65                     66
                      A                      A                      A
 Frequencies --   1338.2161              1342.3981              1348.6374
 Red. masses --      1.2768                 1.2736                 1.2765
 Frc consts  --      1.3472                 1.3522                 1.3679
 IR Inten    --      2.0771                 0.7362                 6.8186

                     67                     68                     69
                      A                      A                      A
 Frequencies --   1352.5263              1362.5404              1368.5858
 Red. masses --      1.2161                 1.2991                 1.2110
 Frc consts  --      1.3107                 1.4210                 1.3365
 IR Inten    --      1.3596                 1.3491                 1.3960

                     70                     71                     72
                      A                      A                      A
 Frequencies --   1371.8480              1385.5602              1386.6722
 Red. masses --      1.2718                 1.4128                 1.4104
 Frc consts  --      1.4102                 1.5980                 1.5979
 IR Inten    --      5.8807                10.2719                 5.8993

                     73                     74                     75
                      A                      A                      A
 Frequencies --   1388.8317              1392.6621              1405.0722
 Red. masses --      1.3987                 1.3903                 1.4067
 Frc consts  --      1.5896                 1.5888                 1.6362
 IR Inten    --      2.9478                 6.5555                 3.9966

                     76                     77                     78
                      A                      A                      A
 Frequencies --   1408.4721              1413.4583              1420.1177
 Red. masses --      1.3867                 1.5002                 1.4210
 Frc consts  --      1.6208                 1.7659                 1.6885
 IR Inten    --      9.2264                 0.8891                 2.0951

                     79                     80                     81
                      A                      A                      A
 Frequencies --   1474.5022              1484.7995              1488.4236
 Red. masses --      1.0999                 1.0898                 1.1120
 Frc consts  --      1.4090                 1.4156                 1.4515
 IR Inten    --      9.5610                 5.5428                10.4695

                     82                     83                     84
                      A                      A                      A
 Frequencies --   1490.1929              1494.1870              1494.4164
 Red. masses --      1.0896                 1.0988                 1.1053
 Frc consts  --      1.4256                 1.4454                 1.4544
 IR Inten    --      6.0281                 6.1507                 1.0269

                     85                     86                     87
                      A                      A                      A
 Frequencies --   1495.9986              1498.3921              1501.9280
 Red. masses --      1.1004                 1.0989                 1.1322
 Frc consts  --      1.4510                 1.4537                 1.5048
 IR Inten    --      1.6505                 4.1661                 6.1999

                     88                     89                     90
                      A                      A                      A
 Frequencies --   1503.3207              1506.1990              1512.0759
 Red. masses --      1.0990                 1.1059                 1.0960
 Frc consts  --      1.4633                 1.4781                 1.4764
 IR Inten    --      3.8136                 2.1933                 1.0471

                     91                     92                     93
                      A                      A                      A
 Frequencies --   1514.3926              2990.5546              3006.1373
 Red. masses --      1.0935                 1.0814                 1.0635
 Frc consts  --      1.4775                 5.6985                 5.6622
 IR Inten    --      4.9565                24.6683                32.8098

                     94                     95                     96
                      A                      A                      A
 Frequencies --   3012.4685              3012.9615              3016.2524
 Red. masses --      1.0667                 1.0654                 1.0649
 Frc consts  --      5.7035                 5.6986                 5.7084
 IR Inten    --     63.9431                46.4228                89.0479

                     97                     98                     99
                      A                      A                      A
 Frequencies --   3018.3675              3020.2928              3025.0827
 Red. masses --      1.0702                 1.0635                 1.0647
 Frc consts  --      5.7444                 5.7161                 5.7405
 IR Inten    --     12.0691                51.8731               103.5003

                    100                    101                    102
                      A                      A                      A
 Frequencies --   3025.9745              3026.8996              3030.0249
 Red. masses --      1.0627                 1.0637                 1.0632
 Frc consts  --      5.7332                 5.7423                 5.7512
 IR Inten    --     23.9785               136.0051                41.6883

                    103                    104                    105
                      A                      A                      A
 Frequencies --   3035.3503              3038.1984              3048.8477
 Red. masses --      1.0808                 1.0635                 1.0940
 Frc consts  --      5.8668                 5.7840                 5.9917
 IR Inten    --     31.0785                95.6767                 5.8519

                    106                    107                    108
                      A                      A                      A
 Frequencies --   3058.1600              3062.5999              3064.5472
 Red. masses --      1.0990                 1.0995                 1.0965
 Frc consts  --      6.0557                 6.0760                 6.0674
 IR Inten    --     95.8367                 8.9320               107.1542

                    109                    110                    111
                      A                      A                      A
 Frequencies --   3065.2532              3067.8831              3072.1813
 Red. masses --      1.1004                 1.0961                 1.0999
 Frc consts  --      6.0915                 6.0785                 6.1165
 IR Inten    --     99.0083               103.0723               153.3130

                    112                    113                    114
                      A                      A                      A
 Frequencies --   3075.6775              3077.3981              3082.6257
 Red. masses --      1.1040                 1.1033                 1.1004
 Frc consts  --      6.1532                 6.1564                 6.1610
 IR Inten    --     14.6246               120.9357               111.6782

                    115                    116                    117
                      A                      A                      A
 Frequencies --   3086.0669              3475.6828              3503.2333
 Red. masses --      1.1030                 1.0737                 1.0745
 Frc consts  --      6.1890                 7.6418                 7.7693
 IR Inten    --    124.8159                 2.9017                 0.7555

 - Thermochemistry -
 -------------------
 Temperature   298.150 Kelvin.  Pressure   1.00000 Atm.
 Atom     1 has atomic number  6 and mass  12.00000

 Molecular mass:   210.20960 amu.
 Principal axes and moments of inertia in atomic units:
                           1         2         3
     Eigenvalues --  1047.292239699.144579772.34975
           X            1.00000  -0.00033  -0.00056
           Y            0.00034   0.99959   0.02862
           Z            0.00055  -0.02862   0.99959
 This molecule is an asymmetric top.
 Rotational symmetry number  1.
 Warning -- assumption of classical behavior for rotation
           may cause significant error
 Rotational temperatures (Kelvin)      0.08270     0.00893     0.00886
 Rotational constants (GHZ):           1.72325     0.18607     0.18468
 Zero-point vibrational energy    1009952.4 (Joules/Mol)
                                  241.38441 (Kcal/Mol)
 Warning -- explicit consideration of  22 degrees of freedom as
           vibrations may cause significant error
 Vibrational temperatures:     33.25    37.98    75.84   115.72   150.23
          (Kelvin)            178.50   205.13   272.19   282.68   355.63
                              396.45   441.18   481.81   508.35   571.39
                              601.44   606.74   681.83   717.79   731.47
                              779.44   893.13   922.08  1036.04  1121.90
                             1143.23  1152.71  1161.37  1170.59  1186.93
                             1239.46  1257.06  1266.33  1301.92  1327.79
                             1365.41  1372.60  1406.25  1417.85  1452.71
                             1457.64  1470.49  1480.85  1514.36  1545.73
                             1556.42  1591.06  1593.78  1610.07  1632.59
                             1642.27  1673.18  1693.39  1709.90  1735.12
                             1760.95  1796.05  1818.00  1842.08  1858.18
                             1866.54  1900.57  1909.89  1925.39  1931.41
                             1940.39  1945.98  1960.39  1969.09  1973.78
                             1993.51  1995.11  1998.22  2003.73  2021.59
                             2026.48  2033.65  2043.23  2121.48  2136.30
                             2141.51  2144.06  2149.80  2150.13  2152.41
                             2155.85  2160.94  2162.94  2167.08  2175.54
                             2178.87  4302.74  4325.16  4334.27  4334.98
                             4339.71  4342.76  4345.53  4352.42  4353.70
                             4355.03  4359.53  4367.19  4371.29  4386.61
                             4400.01  4406.40  4409.20  4410.22  4414.00
                             4420.18  4425.21  4427.69  4435.21  4440.16
                             5000.73  5040.37

 Zero-point correction=                           0.384671 (Hartree/Particle)
 Thermal correction to Energy=                    0.399965
 Thermal correction to Enthalpy=                  0.400909
 Thermal correction to Gibbs Free Energy=         0.340517
 Sum of electronic and zero-point Energies=           -620.192221
 Sum of electronic and thermal Energies=              -620.176927
 Sum of electronic and thermal Enthalpies=            -620.175982
 Sum of electronic and thermal Free Energies=         -620.236374

                     E (Thermal)             CV                S
                      KCal/Mol        Cal/Mol-Kelvin    Cal/Mol-Kelvin
 Total                  250.982             60.290            127.106
 Electronic               0.000              0.000              0.000
 Translational            0.889              2.981             41.933
 Rotational               0.889              2.981             32.962
 Vibrational            249.204             54.328             52.211
 Vibration     1          0.593              1.985              6.347
 Vibration     2          0.593              1.985              6.083
 Vibration     3          0.596              1.977              4.713
 Vibration     4          0.600              1.962              3.880
 Vibration     5          0.605              1.946              3.370
 Vibration     6          0.610              1.929              3.036
 Vibration     7          0.616              1.911              2.769
 Vibration     8          0.633              1.855              2.236
 Vibration     9          0.636              1.845              2.166
 Vibration    10          0.661              1.767              1.751
 Vibration    11          0.677              1.719              1.561
 Vibration    12          0.697              1.661              1.380
 Vibration    13          0.716              1.606              1.236
 Vibration    14          0.730              1.568              1.151
 Vibration    15          0.764              1.476              0.973
 Vibration    16          0.781              1.431              0.899
 Vibration    17          0.784              1.423              0.886
 Vibration    18          0.831              1.308              0.727
 Vibration    19          0.854              1.252              0.661
 Vibration    20          0.864              1.231              0.637
 Vibration    21          0.897              1.158              0.562
 Vibration    22          0.981              0.988              0.415

 Optimization completed.
    -- Stationary point found.
 Normal termination of Gaussian 16 at Thu Jul 18 16:49:48 2024.
 Gaussian 16:  ES64L-G16RevA.03 25-Dec-2016

 ----------------------------------------------------------------------
 # TD(NStates=10, Root=1) B3LYP/6-31G** SCRF=(Solvent=water) volume pop
 =NPA density=current Geom=AllCheck Guess=Read
 ----------------------------------------------------------------------

 Structure from the checkpoint file:  "OXEZLYIDQPBCBB-UHFFFAOYSA-N_conf_0_2.chk"
 ----------------------------------
 OXEZLYIDQPBCBB-UHFFFAOYSA-N_conf_0
 ----------------------------------
 Charge =  0 Multiplicity = 1

                         Standard orientation:
 ---------------------------------------------------------------------
 Center     Atomic      Atomic             Coordinates (Angstroms)
 Number     Number       Type             X           Y           Z
 ---------------------------------------------------------------------
      1          6           0        2.308159    0.124739    0.022605
      2          6           0        0.900453   -0.117535    0.593137
      3          6           0       -0.091656   -0.741932   -0.399084
      4          6           0       -1.489611   -1.024634    0.181980
      5          6           0       -2.297225    0.203405    0.660885
      6          6           0       -2.630150    1.210941   -0.463704
      7          6           0       -3.734349    0.697493   -1.403921
      8          7           0       -4.968421    0.288367   -0.713648
      9          6           0       -4.687886   -0.680804    0.358092
     10          6           0       -3.613204   -0.216822    1.356482
     11          6           0        3.009537   -1.180190   -0.433240
     12          6           0        4.552979   -1.025294   -0.468910
     13          7           0        5.005625    0.350141   -0.712211
     14          6           0        4.563539    1.255510    0.368337
     15          6           0        3.214961    0.859397    1.022757
     16          1           0        2.197095    0.776279   -0.858112
     17          1           0        0.981259   -0.764833    1.479469
     18          1           0        0.506331    0.842067    0.952103
     19          1           0        0.314573   -1.692577   -0.765667
     20          1           0       -0.173605   -0.094115   -1.282284
     21          1           0       -2.065590   -1.580477   -0.568019
     22          1           0       -1.378241   -1.707974    1.035883
     23          1           0       -1.686500    0.726053    1.408326
     24          1           0       -2.976530    2.146947   -0.003595
     25          1           0       -1.734727    1.465723   -1.043192
     26          1           0       -3.990876    1.468480   -2.139360
     27          1           0       -3.370933   -0.168208   -1.973906
     28          1           0       -5.378576    1.119104   -0.286203
     29          1           0       -4.379184   -1.621077   -0.117858
     30          1           0       -5.625218   -0.892170    0.885206
     31          1           0       -4.009901    0.642614    1.914870
     32          1           0       -3.419477   -1.007831    2.092889
     33          1           0        2.642508   -1.470197   -1.424334
     34          1           0        2.743814   -1.999954    0.248603
     35          1           0        4.984716   -1.680469   -1.233414
     36          1           0        4.983647   -1.342384    0.489222
     37          1           0        4.592690    0.667025   -1.587052
     38          1           0        5.344902    1.291891    1.139920
     39          1           0        4.494784    2.263281   -0.055297
     40          1           0        2.716546    1.754152    1.414447
     41          1           0        3.392786    0.203456    1.885869
 ---------------------------------------------------------------------

 SCF Done:  E(RB3LYP) =  -620.576891619     A.U. after    1 cycles

 Excitation energies and oscillator strengths:

 Excited State   1:      Singlet-A      6.7930 eV  182.52 nm  f=0.0084  <S**2>=0.000
      58 -> 60         0.53294
      58 -> 61        -0.43121
 This state for optimization and/or second-order correction.
 Total Energy, E(TD-HF/TD-DFT) =  -620.327253879
 Copying the excited state density for this state as the 1-particle RhoCI density.

 Excited State   2:      Singlet-A      6.8783 eV  180.25 nm  f=0.0046  <S**2>=0.000
      59 -> 60         0.43972
      59 -> 61         0.50879
      59 -> 62        -0.10006
      59 -> 64        -0.13500

 Excited State   3:      Singlet-A      7.4818 eV  165.71 nm  f=0.0334  <S**2>=0.000
      59 -> 60         0.25867
      59 -> 62         0.62343

 Excited State   4:      Singlet-A      7.5217 eV  164.83 nm  f=0.0171  <S**2>=0.000
      58 -> 60         0.43397
      58 -> 61         0.51130
      58 -> 62         0.11812
      58 -> 64         0.13533

 Excited State   5:      Singlet-A      7.5240 eV  164.78 nm  f=0.0037  <S**2>=0.000
      59 -> 60         0.47360
      59 -> 61        -0.42441
      59 -> 62        -0.23157
      59 -> 64         0.16177

 Excited State   6:      Singlet-A      7.6583 eV  161.90 nm  f=0.0389  <S**2>=0.000
      58 -> 60        -0.10831
      58 -> 62         0.20840
      58 -> 63         0.63468
      58 -> 65         0.14511

 Excited State   7:      Singlet-A      7.9853 eV  155.27 nm  f=0.0061  <S**2>=0.000
      59 -> 61         0.21407
      59 -> 64         0.62018
      59 -> 66        -0.13391
      59 -> 67         0.14556

 Excited State   8:      Singlet-A      8.0073 eV  154.84 nm  f=0.0253  <S**2>=0.000
      58 -> 61        -0.13749
      58 -> 62         0.58223
      58 -> 63        -0.21999
      58 -> 64         0.17952
      58 -> 65         0.12476
      58 -> 66         0.16482

 Excited State   9:      Singlet-A      8.1548 eV  152.04 nm  f=0.0248  <S**2>=0.000
      59 -> 62         0.12551
      59 -> 63         0.60208
      59 -> 65        -0.20211
      59 -> 66         0.23352

 Excited State  10:      Singlet-A      8.2223 eV  150.79 nm  f=0.0117  <S**2>=0.000
      58 -> 61        -0.14528
      58 -> 62        -0.22958
      58 -> 64         0.60810
      58 -> 67        -0.19422

 The electronic state is 1-A.
 Alpha  occ. eigenvalues --  -14.31105 -14.31060 -10.19938 -10.19874 -10.19847
 Alpha  occ. eigenvalues --  -10.19837 -10.18032 -10.17964 -10.17301 -10.17246
 Alpha  occ. eigenvalues --  -10.17195 -10.17164 -10.17153 -10.17130 -10.17129
 Alpha  occ. eigenvalues --   -0.89853  -0.89830  -0.80881  -0.78791  -0.74185
 Alpha  occ. eigenvalues --   -0.73923  -0.73606  -0.67784  -0.63080  -0.61892
 Alpha  occ. eigenvalues --   -0.61404  -0.60817  -0.57644  -0.53243  -0.53105
 Alpha  occ. eigenvalues --   -0.49794  -0.48538  -0.45556  -0.45247  -0.44371
 Alpha  occ. eigenvalues --   -0.43763  -0.43456  -0.42424  -0.41208  -0.40466
 Alpha  occ. eigenvalues --   -0.39699  -0.38726  -0.37693  -0.37126  -0.36581
 Alpha  occ. eigenvalues --   -0.35907  -0.35619  -0.34638  -0.34217  -0.33741
 Alpha  occ. eigenvalues --   -0.32537  -0.32485  -0.30924  -0.30210  -0.30079
 Alpha  occ. eigenvalues --   -0.29377  -0.28867  -0.21476  -0.21364
 Alpha virt. eigenvalues --    0.07569   0.07942   0.09719   0.10366   0.10998
 Alpha virt. eigenvalues --    0.12439   0.12569   0.13610   0.14018   0.14285
 Alpha virt. eigenvalues --    0.15024   0.15728   0.15907   0.16225   0.16902

 Mulliken charges:
               1
     1  C    0.000358
     2  C   -0.173828
     3  C   -0.186426
     4  C   -0.177387
     5  C   -0.056825
     6  C   -0.184782
     7  C   -0.065344
     8  N   -0.517116
     9  C   -0.064299
    10  C   -0.186871
    11  C   -0.166293
    12  C   -0.072118
    13  N   -0.146140
    14  C   -0.055691
    15  C   -0.165453
    16  H   -0.038242
    17  H    0.085056
    18  H    0.082510
    19  H    0.091878
    20  H    0.088718
    21  H    0.088921
    22  H    0.086414
    23  H    0.084033
    24  H    0.088486
    25  H    0.088811
    26  H    0.096532
    27  H    0.101838
    28  H    0.242145
    29  H    0.101641
    30  H    0.096439
    31  H    0.087936
    32  H    0.086191
    33  H    0.066969
    34  H    0.111307
    35  H    0.069586
    36  H    0.118630
    37  H   -0.016221
    38  H    0.153412
    39  H    0.002963
    40  H    0.061396
    41  H    0.090868
 Sum of Mulliken charges =  -0.00000

 Dipole moment (field-independent basis, Debye):
    X=              2.3841    Y=             -0.6604    Z=              2.7836  Tot=              3.7241
 Quadrupole moment (field-independent basis, Debye-Ang):
   XX=            -95.4154   YY=            -96.8072   ZZ=           -101.1148
   XY=             -7.8717   XZ=              0.2802   YZ=              0.9551

 Summary of Natural Population Analysis:

                                       Natural Population
                Natural  -----------------------------------------------
    Atom  No    Charge         Core      Valence    Rydberg      Total
 -----------------------------------------------------------------------
      C    1   -0.26425      1.99920     4.25094    0.01411     6.26425
      C    2   -0.46295      1.99930     4.45022    0.01344     6.46295
      C    3   -0.45700      1.99933     4.44620    0.01146     6.45700
      C    4   -0.46336      1.99931     4.45149    0.01256     6.46336
      C    5   -0.26157      1.99921     4.24864    0.01371     6.26157
      C    6   -0.48783      1.99930     4.47673    0.01180     6.48783
      C    7   -0.27519      1.99935     4.25911    0.01673     6.27519
      N    8   -0.71578      1.99961     5.70037    0.01581     7.71578
      C    9   -0.27503      1.99935     4.25905    0.01662     6.27503
      C   10   -0.48275      1.99931     4.47171    0.01174     6.48275
      C   11   -0.46653      1.99927     4.45344    0.01382     6.46653
      C   12   -0.33585      1.99935     4.31680    0.01971     6.33585
      N   13   -0.23876      1.99935     5.22249    0.01693     7.23876
      C   14   -0.33211      1.99933     4.31348    0.01930     6.33211
      C   15   -0.46414      1.99928     4.45087    0.01400     6.46414
      H   16    0.15168      0.00000     0.80231    0.04600     0.84832
      H   17    0.22765      0.00000     0.76892    0.00343     0.77235
      H   18    0.22609      0.00000     0.76764    0.00627     0.77391
      H   19    0.23583      0.00000     0.76190    0.00227     0.76417
      H   20    0.22541      0.00000     0.77053    0.00406     0.77459
      H   21    0.23399      0.00000     0.76417    0.00184     0.76601
      H   22    0.23357      0.00000     0.76423    0.00220     0.76643
      H   23    0.24521      0.00000     0.75262    0.00217     0.75479
      H   24    0.23391      0.00000     0.76379    0.00230     0.76609
      H   25    0.23775      0.00000     0.75946    0.00279     0.76225
      H   26    0.23791      0.00000     0.76044    0.00165     0.76209
      H   27    0.22161      0.00000     0.77627    0.00212     0.77839
      H   28    0.38235      0.00000     0.61383    0.00382     0.61765
      H   29    0.22159      0.00000     0.77629    0.00212     0.77841
      H   30    0.23784      0.00000     0.76051    0.00165     0.76216
      H   31    0.23344      0.00000     0.76426    0.00230     0.76656
      H   32    0.23934      0.00000     0.75858    0.00207     0.76066
      H   33    0.20890      0.00000     0.76979    0.02130     0.79110
      H   34    0.24868      0.00000     0.74470    0.00662     0.75132
      H   35    0.21411      0.00000     0.76186    0.02403     0.78589
      H   36    0.24103      0.00000     0.74465    0.01432     0.75897
      H   37    0.17469      0.00000     0.73204    0.09327     0.82531
      H   38    0.27731      0.00000     0.71735    0.00534     0.72269
      H   39    0.15016      0.00000     0.80536    0.04448     0.84984
      H   40    0.21155      0.00000     0.77027    0.01818     0.78845
      H   41    0.23149      0.00000     0.75763    0.01088     0.76851
 =======================================================================
   * Total *   -0.00000     29.98984    87.46093    0.54922   118.00000

 Normal termination of Gaussian 16 at Thu Jul 18 17:15:08 2024.
