 Gaussian 16, Revision A.03,

 -------------------------------------------------------
 # opt=CalcFc B3LYP/6-31G** SCRF=(Solvent=water) scf=xqc
 -------------------------------------------------------

 ----------------------------------
 MQJKPEGWNLWLTK-UHFFFAOYSA-N_conf_2
 ----------------------------------
 Symbolic Z-matrix:
 Charge =  0 Multiplicity = 1

 SCF Done:  E(RB3LYP) =  -1122.62357668     A.U. after   12 cycles
 SCF Done:  E(RB3LYP) =  -1122.62923107     A.U. after   11 cycles
 SCF Done:  E(RB3LYP) =  -1122.63024853     A.U. after   12 cycles
 SCF Done:  E(RB3LYP) =  -1122.63009402     A.U. after   13 cycles
 SCF Done:  E(RB3LYP) =  -1122.63045738     A.U. after   12 cycles
 SCF Done:  E(RB3LYP) =  -1122.63046495     A.U. after    9 cycles
 SCF Done:  E(RB3LYP) =  -1122.63046541     A.U. after    7 cycles
 SCF Done:  E(RB3LYP) =  -1122.63046542     A.U. after    6 cycles
 SCF Done:  E(RB3LYP) =  -1122.63046547     A.U. after    7 cycles
 SCF Done:  E(RB3LYP) =  -1122.63046548     A.U. after    6 cycles
 Optimization completed.
    -- Stationary point found.
 Normal termination of Gaussian 16 at Thu Jul 18 14:46:28 2024.

 ----------------------------------------------------------------------
 # freq B3LYP/6-31G** SCRF=(Solvent=water) volume NMR pop=NPA density=c
 urrent Geom=AllCheck Guess=Read
 ----------------------------------------------------------------------

 Structure from the checkpoint file:  "MQJKPEGWNLWLTK-UHFFFAOYSA-N_conf_2_1.chk"
 ----------------------------------
 MQJKPEGWNLWLTK-UHFFFAOYSA-N_conf_2
 ----------------------------------
 Charge =  0 Multiplicity = 1

 SCF Done:  E(RB3LYP) =  -1122.63046548     A.U. after    1 cycles

      1  O    Isotropic =   165.6043   Anisotropy =    43.7235

      2  S    Isotropic =   235.4931   Anisotropy =   229.8418

      3  C    Isotropic =    62.0207   Anisotropy =   104.7371

      4  C    Isotropic =    68.0680   Anisotropy =   167.3806

      5  C    Isotropic =    83.5521   Anisotropy =   129.4696

      6  C    Isotropic =    46.3056   Anisotropy =   167.6681

      7  N    Isotropic =   192.6796   Anisotropy =    70.1779

      8  C    Isotropic =    83.5521   Anisotropy =   129.4693

      9  C    Isotropic =    68.0680   Anisotropy =   167.3806

     10  C    Isotropic =    62.0207   Anisotropy =   104.7372

     11  C    Isotropic =    68.0680   Anisotropy =   167.3805

     12  C    Isotropic =    83.5521   Anisotropy =   129.4697

     13  C    Isotropic =    46.3056   Anisotropy =   167.6681

     14  N    Isotropic =   192.6795   Anisotropy =    70.1779

     15  C    Isotropic =    83.5522   Anisotropy =   129.4692

     16  C    Isotropic =    68.0680   Anisotropy =   167.3807

     17  O    Isotropic =   165.6060   Anisotropy =    43.7254

     18  H    Isotropic =    24.1402   Anisotropy =     8.4348

     19  H    Isotropic =    25.1404   Anisotropy =     5.7682

     20  H    Isotropic =    28.0461   Anisotropy =    12.2621

     21  H    Isotropic =    28.0461   Anisotropy =    12.2620

     22  H    Isotropic =    25.1404   Anisotropy =     5.7682

     23  H    Isotropic =    24.1402   Anisotropy =     8.4348

     24  H    Isotropic =    24.1402   Anisotropy =     8.4348

     25  H    Isotropic =    25.1404   Anisotropy =     5.7682

     26  H    Isotropic =    28.0461   Anisotropy =    12.2621

     27  H    Isotropic =    28.0461   Anisotropy =    12.2620

     28  H    Isotropic =    25.1404   Anisotropy =     5.7682

     29  H    Isotropic =    24.1402   Anisotropy =     8.4348

  Exact polarizability: 281.664  -0.000 165.228   0.002   0.002 220.096
 Approx polarizability: 299.045  -0.000 210.025   0.003   0.003 288.635

                      1                      2                      3
                      A                      A                      A
 Frequencies --     18.3291                33.5644                38.5084
 Red. masses --      3.5812                 6.0659                 3.7892
 Frc consts  --      0.0007                 0.0040                 0.0033
 IR Inten    --      0.0000                 3.7463                 3.8990

                      4                      5                      6
                      A                      A                      A
 Frequencies --    100.1618               146.4035               159.1848
 Red. masses --      5.5941                 7.5838                 5.0095
 Frc consts  --      0.0331                 0.0958                 0.0748
 IR Inten    --      1.4566                 1.5610                 5.4148

                      7                      8                      9
                      A                      A                      A
 Frequencies --    179.5347               260.1762               273.5299
 Red. masses --      6.3952                 6.9104                 8.6372
 Frc consts  --      0.1215                 0.2756                 0.3807
 IR Inten    --      0.0000                10.2435                 0.0327

                     10                     11                     12
                      A                      A                      A
 Frequencies --    302.9127               311.2272               365.4058
 Red. masses --      7.3806                 7.0295                 2.2240
 Frc consts  --      0.3990                 0.4012                 0.1750
 IR Inten    --      1.1470                 0.0000                22.7338

                     13                     14                     15
                      A                      A                      A
 Frequencies --    365.5354               385.6704               395.4156
 Red. masses --      6.7882                 1.1189                 1.2845
 Frc consts  --      0.5344                 0.0981                 0.1183
 IR Inten    --      3.9914                 0.0000                27.9414

                     16                     17                     18
                      A                      A                      A
 Frequencies --    414.7953               420.0795               421.2962
 Red. masses --      2.9126                 2.7078                 3.0841
 Frc consts  --      0.2953                 0.2815                 0.3225
 IR Inten    --      0.0000                 0.0000                 0.3280

                     19                     20                     21
                      A                      A                      A
 Frequencies --    444.2457               458.8193               474.1128
 Red. masses --      1.4094                 1.3016                 5.5918
 Frc consts  --      0.1639                 0.1614                 0.7406
 IR Inten    --    253.4873              1201.4945                 0.7807

                     22                     23                     24
                      A                      A                      A
 Frequencies --    497.1141               514.4844               547.1598
 Red. masses --      6.8373                 2.7358                 3.2001
 Frc consts  --      0.9955                 0.4267                 0.5645
 IR Inten    --     84.0046                14.9546                 2.2137

                     25                     26                     27
                      A                      A                      A
 Frequencies --    551.6900               641.7177               644.8775
 Red. masses --      5.2515                 6.3785                 6.9564
 Frc consts  --      0.9417                 1.5476                 1.7045
 IR Inten    --    217.6667                36.6438                 0.0000

                     28                     29                     30
                      A                      A                      A
 Frequencies --    646.5999               690.3275               713.2481
 Red. masses --      6.9733                 5.5217                 3.9203
 Frc consts  --      1.7178                 1.5504                 1.1750
 IR Inten    --      1.1425               236.5904                23.0581

                     31                     32                     33
                      A                      A                      A
 Frequencies --    716.6962               826.6500               828.9989
 Red. masses --      4.5686                 1.2527                 1.2493
 Frc consts  --      1.3826                 0.5043                 0.5059
 IR Inten    --     58.5188                 0.0000                 1.1487

                     34                     35                     36
                      A                      A                      A
 Frequencies --    834.2184               835.4179               845.4741
 Red. masses --      2.2263                 1.7825                 4.8014
 Frc consts  --      0.9128                 0.7330                 2.0222
 IR Inten    --     56.8109                 7.0846                42.2097

                     37                     38                     39
                      A                      A                      A
 Frequencies --    846.0642               961.1134               966.3463
 Red. masses --      3.0607                 1.2520                 1.2403
 Frc consts  --      1.2909                 0.6814                 0.6824
 IR Inten    --     26.8044                 1.3957                 0.0000

                     40                     41                     42
                      A                      A                      A
 Frequencies --    966.5914               970.6661              1013.1436
 Red. masses --      1.3225                 1.3139                 4.2113
 Frc consts  --      0.7280                 0.7294                 2.5469
 IR Inten    --      0.0000                 0.1723                14.5207

                     43                     44                     45
                      A                      A                      A
 Frequencies --   1019.1244              1059.7267              1079.1187
 Red. masses --      3.2075                 4.6950                 1.4405
 Frc consts  --      1.9628                 3.1065                 0.9883
 IR Inten    --      5.7295               122.5450                 0.0000

                     46                     47                     48
                      A                      A                      A
 Frequencies --   1080.6639              1105.9127              1122.3819
 Red. masses --      1.4387                 3.1021                 4.2097
 Frc consts  --      0.9899                 2.2353                 3.1245
 IR Inten    --      4.1112               354.3700               333.4678

                     49                     50                     51
                      A                      A                      A
 Frequencies --   1155.4632              1157.2445              1205.5356
 Red. masses --      1.1815                 1.1993                 1.1915
 Frc consts  --      0.9294                 0.9463                 1.0202
 IR Inten    --      0.0000                54.4151                38.8528

                     52                     53                     54
                      A                      A                      A
 Frequencies --   1210.1726              1254.2813              1328.9741
 Red. masses --      1.1820                15.5828                 1.5189
 Frc consts  --      1.0199                14.4440                 1.5806
 IR Inten    --      2.7942               247.9911                 0.0000

                     55                     56                     57
                      A                      A                      A
 Frequencies --   1336.9507              1339.8642              1343.0924
 Red. masses --      1.4544                 2.9310                 2.9523
 Frc consts  --      1.5317                 3.1001                 3.1377
 IR Inten    --     13.3752               260.8075                79.5591

                     58                     59                     60
                      A                      A                      A
 Frequencies --   1374.5730              1380.1719              1473.2885
 Red. masses --      4.0181                 4.5841                 3.0660
 Frc consts  --      4.4730                 5.1448                 3.9211
 IR Inten    --      0.0000                18.1772                 0.0000

                     61                     62                     63
                      A                      A                      A
 Frequencies --   1476.1930              1539.7705              1540.7837
 Red. masses --      3.0878                 2.5213                 2.4895
 Frc consts  --      3.9644                 3.5220                 3.4821
 IR Inten    --     11.3523               109.9925                50.1561

                     64                     65                     66
                      A                      A                      A
 Frequencies --   1613.3878              1617.6491              1643.5823
 Red. masses --      6.2598                 6.3116                 3.1603
 Frc consts  --      9.6003                 9.7310                 5.0299
 IR Inten    --      0.0000                30.6174               213.9817

                     67                     68                     69
                      A                      A                      A
 Frequencies --   1644.7154              1662.1903              1663.0651
 Red. masses --      2.8630                 1.3858                 1.4563
 Frc consts  --      4.5630                 2.2558                 2.3732
 IR Inten    --    106.2699               622.0527               153.8902

                     70                     71                     72
                      A                      A                      A
 Frequencies --   3191.7325              3191.8266              3191.9087
 Red. masses --      1.0897                 1.0898                 1.0895
 Frc consts  --      6.5404                 6.5413                 6.5400
 IR Inten    --      0.0000                25.3096                35.0453

                     73                     74                     75
                      A                      A                      A
 Frequencies --   3192.1642              3218.3131              3219.0797
 Red. masses --      1.0895                 1.0926                 1.0936
 Frc consts  --      6.5412                 6.6675                 6.6766
 IR Inten    --     11.3495                 0.0000                 3.9079

                     76                     77                     78
                      A                      A                      A
 Frequencies --   3219.7603              3220.6865              3583.6738
 Red. masses --      1.0925                 1.0936                 1.0476
 Frc consts  --      6.6731                 6.6834                 7.9272
 IR Inten    --     13.1481                 1.0668               180.4668

                     79                     80                     81
                      A                      A                      A
 Frequencies --   3583.8109              3694.3905              3694.3909
 Red. masses --      1.0477                 1.1010                 1.1011
 Frc consts  --      7.9283                 8.8540                 8.8541
 IR Inten    --     20.1903                 0.6338                84.5481

 - Thermochemistry -
 -------------------
 Temperature   298.150 Kelvin.  Pressure   1.00000 Atm.
 Atom     1 has atomic number  8 and mass  15.99491

 Molecular mass:   248.06195 amu.
 Principal axes and moments of inertia in atomic units:
                           1         2         3
     Eigenvalues --  2464.237917381.034028173.94973
           X            1.00000  -0.00000   0.00000
           Y            0.00000   1.00000   0.00000
           Z           -0.00000  -0.00000   1.00000
 This molecule is an asymmetric top.
 Rotational symmetry number  1.
 Warning -- assumption of classical behavior for rotation
           may cause significant error
 Rotational temperatures (Kelvin)      0.03515     0.01173     0.01060
 Rotational constants (GHZ):           0.73237     0.24451     0.22079
 Zero-point vibrational energy     590100.6 (Joules/Mol)
                                  141.03744 (Kcal/Mol)
 Warning -- explicit consideration of  25 degrees of freedom as
           vibrations may cause significant error
 Vibrational temperatures:     26.37    48.29    55.40   144.11   210.64
          (Kelvin)            229.03   258.31   374.34   393.55   435.82
                              447.79   525.74   525.92   554.89   568.91
                              596.80   604.40   606.15   639.17   660.14
                              682.14   715.24   740.23   787.24   793.76
                              923.29   927.83   930.31   993.23  1026.20
                             1031.17  1189.37  1192.74  1200.25  1201.98
                             1216.45  1217.30  1382.83  1390.36  1390.71
                             1396.57  1457.69  1466.29  1524.71  1552.61
                             1554.83  1591.16  1614.86  1662.45  1665.02
                             1734.50  1741.17  1804.63  1912.10  1923.57
                             1927.77  1932.41  1977.70  1985.76  2119.73
                             2123.91  2215.39  2216.84  2321.31  2327.44
                             2364.75  2366.38  2391.52  2392.78  4592.19
                             4592.33  4592.44  4592.81  4630.43  4631.54
                             4632.52  4633.85  5156.11  5156.30  5315.40
                             5315.40

 Zero-point correction=                           0.224757 (Hartree/Particle)
 Thermal correction to Energy=                    0.240064
 Thermal correction to Enthalpy=                  0.241008
 Thermal correction to Gibbs Free Energy=         0.180839
 Sum of electronic and zero-point Energies=          -1122.405708
 Sum of electronic and thermal Energies=             -1122.390402
 Sum of electronic and thermal Enthalpies=           -1122.389458
 Sum of electronic and thermal Free Energies=        -1122.449626

                     E (Thermal)             CV                S
                      KCal/Mol        Cal/Mol-Kelvin    Cal/Mol-Kelvin
 Total                  150.642             60.468            126.636
 Electronic               0.000              0.000              0.000
 Translational            0.889              2.981             42.426
 Rotational               0.889              2.981             33.363
 Vibrational            148.865             54.506             50.846
 Vibration     1          0.593              1.986              6.807
 Vibration     2          0.594              1.983              5.607
 Vibration     3          0.594              1.981              5.334
 Vibration     4          0.604              1.949              3.451
 Vibration     5          0.617              1.907              2.718
 Vibration     6          0.621              1.892              2.559
 Vibration     7          0.629              1.867              2.333
 Vibration     8          0.668              1.746              1.661
 Vibration     9          0.676              1.722              1.574
 Vibration    10          0.694              1.668              1.401
 Vibration    11          0.700              1.652              1.356
 Vibration    12          0.739              1.543              1.099
 Vibration    13          0.739              1.543              1.098
 Vibration    14          0.754              1.501              1.017
 Vibration    15          0.762              1.480              0.980
 Vibration    16          0.778              1.438              0.910
 Vibration    17          0.783              1.427              0.892
 Vibration    18          0.784              1.424              0.888
 Vibration    19          0.804              1.374              0.813
 Vibration    20          0.817              1.341              0.770
 Vibration    21          0.831              1.307              0.726
 Vibration    22          0.853              1.256              0.665
 Vibration    23          0.870              1.218              0.623
 Vibration    24          0.902              1.146              0.550
 Vibration    25          0.907              1.136              0.541

 Optimization completed.
    -- Stationary point found.
 Normal termination of Gaussian 16 at Thu Jul 18 15:03:32 2024.
 Gaussian 16:  ES64L-G16RevA.03 25-Dec-2016

 ----------------------------------------------------------------------
 # TD(NStates=10, Root=1) B3LYP/6-31G** SCRF=(Solvent=water) volume pop
 =NPA density=current Geom=AllCheck Guess=Read
 ----------------------------------------------------------------------

 Structure from the checkpoint file:  "MQJKPEGWNLWLTK-UHFFFAOYSA-N_conf_2_2.chk"
 ----------------------------------
 MQJKPEGWNLWLTK-UHFFFAOYSA-N_conf_2
 ----------------------------------
 Charge =  0 Multiplicity = 1

                         Standard orientation:
 ---------------------------------------------------------------------
 Center     Atomic      Atomic             Coordinates (Angstroms)
 Number     Number       Type             X           Y           Z
 ---------------------------------------------------------------------
      1          8           0       -0.000001    2.323311   -1.277924
      2         16           0        0.000000    1.574497   -0.000019
      3          6           0       -1.435727    0.518314   -0.000001
      4          6           0       -1.994086    0.098467    1.213571
      5          6           0       -3.104261   -0.733172    1.214376
      6          6           0       -3.679540   -1.168695    0.000021
      7          7           0       -4.747975   -2.037446    0.000029
      8          6           0       -3.104281   -0.733175   -1.214344
      9          6           0       -1.994106    0.098463   -1.213562
     10          6           0        1.435729    0.518317   -0.000012
     11          6           0        1.994068    0.098413   -1.213574
     12          6           0        3.104241   -0.733228   -1.214359
     13          6           0        3.679539   -1.168696    0.000007
     14          7           0        4.747973   -2.037448    0.000022
     15          6           0        3.104301   -0.733118    1.214362
     16          6           0        1.994127    0.098521    1.213559
     17          8           0        0.000000    2.323341    1.277868
     18          1           0       -1.569802    0.438646    2.151849
     19          1           0       -3.540823   -1.050811    2.156699
     20          1           0       -5.299924   -2.088671    0.844627
     21          1           0       -5.299933   -2.088671   -0.844562
     22          1           0       -3.540860   -1.050818   -2.156659
     23          1           0       -1.569839    0.438639   -2.151848
     24          1           0        1.569769    0.438550   -2.151861
     25          1           0        3.540787   -1.050912   -2.156674
     26          1           0        5.299909   -2.088713   -0.844582
     27          1           0        5.299944   -2.088636    0.844607
     28          1           0        3.540895   -1.050718    2.156684
     29          1           0        1.569877    0.438743    2.151837
 ---------------------------------------------------------------------

 SCF Done:  E(RB3LYP) =  -1122.63046548     A.U. after    2 cycles

 Excitation energies and oscillator strengths:

 Excited State   1:      Singlet-A      4.2963 eV  288.58 nm  f=0.7599  <S**2>=0.000
      65 -> 66         0.70448
 This state for optimization and/or second-order correction.
 Total Energy, E(TD-HF/TD-DFT) =  -1122.47257753
 Copying the excited state density for this state as the 1-particle RhoCI density.

 Excited State   2:      Singlet-A      4.5528 eV  272.33 nm  f=0.0000  <S**2>=0.000
      63 -> 66         0.16153
      64 -> 68        -0.12234
      65 -> 67         0.66981

 Excited State   3:      Singlet-A      4.7565 eV  260.66 nm  f=0.0903  <S**2>=0.000
      62 -> 66        -0.19879
      63 -> 69         0.12291
      64 -> 67        -0.30632
      65 -> 68         0.59165

 Excited State   4:      Singlet-A      4.8203 eV  257.21 nm  f=0.1181  <S**2>=0.000
      64 -> 66         0.67981
      65 -> 69         0.17862

 Excited State   5:      Singlet-A      5.1018 eV  243.02 nm  f=0.0037  <S**2>=0.000
      64 -> 67         0.61680
      65 -> 68         0.34044

 Excited State   6:      Singlet-A      5.2872 eV  234.50 nm  f=0.0000  <S**2>=0.000
      63 -> 66        -0.19904
      64 -> 68         0.64987
      65 -> 67         0.17764

 Excited State   7:      Singlet-A      5.3315 eV  232.55 nm  f=0.2602  <S**2>=0.000
      62 -> 67         0.10578
      64 -> 66        -0.16258
      65 -> 69         0.67150

 Excited State   8:      Singlet-A      5.6591 eV  219.09 nm  f=0.1631  <S**2>=0.000
      63 -> 67         0.10015
      64 -> 69         0.69209

 Excited State   9:      Singlet-A      5.7412 eV  215.96 nm  f=0.0000  <S**2>=0.000
      63 -> 66         0.65114
      64 -> 68         0.22601
      65 -> 67        -0.11002

 Excited State  10:      Singlet-A      5.8232 eV  212.91 nm  f=0.2857  <S**2>=0.000
      62 -> 66         0.66915
      64 -> 67        -0.12839
      65 -> 68         0.15073

 The electronic state is 1-A.
 Alpha  occ. eigenvalues --  -89.09428 -19.13955 -19.13954 -14.34987 -14.34987
 Alpha  occ. eigenvalues --  -10.24634 -10.24634 -10.21402 -10.21401 -10.20836
 Alpha  occ. eigenvalues --  -10.20836 -10.20833 -10.20833 -10.19560 -10.19560
 Alpha  occ. eigenvalues --  -10.19559 -10.19559  -8.12227  -6.08701  -6.08614
 Alpha  occ. eigenvalues --   -6.08510  -1.09424  -0.99175  -0.92988  -0.92985
 Alpha  occ. eigenvalues --   -0.85816  -0.85284  -0.76863  -0.75930  -0.75870
 Alpha  occ. eigenvalues --   -0.74242  -0.67178  -0.62801  -0.62534  -0.61855
 Alpha  occ. eigenvalues --   -0.58161  -0.54415  -0.53312  -0.52178  -0.51870
 Alpha  occ. eigenvalues --   -0.51335  -0.48594  -0.45859  -0.45195  -0.44903
 Alpha  occ. eigenvalues --   -0.44130  -0.43277  -0.42933  -0.42822  -0.41118
 Alpha  occ. eigenvalues --   -0.40453  -0.39352  -0.39106  -0.35381  -0.35319
 Alpha  occ. eigenvalues --   -0.33866  -0.32776  -0.32079  -0.31606  -0.30003
 Alpha  occ. eigenvalues --   -0.28901  -0.26645  -0.26321  -0.22657  -0.20945
 Alpha virt. eigenvalues --   -0.03243  -0.01768  -0.00790   0.00104   0.06373
 Alpha virt. eigenvalues --    0.08530   0.08735   0.09175   0.10267   0.11132
 Alpha virt. eigenvalues --    0.11965   0.12801   0.13396   0.14065   0.15912

 Mulliken charges:
               1
     1  O   -0.609637
     2  S    1.029752
     3  C   -0.170922
     4  C   -0.118648
     5  C   -0.104020
     6  C    0.259757
     7  N   -0.622797
     8  C   -0.104019
     9  C   -0.118650
    10  C   -0.170922
    11  C   -0.118650
    12  C   -0.104019
    13  C    0.259757
    14  N   -0.622797
    15  C   -0.104020
    16  C   -0.118649
    17  O   -0.609637
    18  H    0.119674
    19  H    0.115696
    20  H    0.301661
    21  H    0.301661
    22  H    0.115696
    23  H    0.119674
    24  H    0.119673
    25  H    0.115696
    26  H    0.301661
    27  H    0.301660
    28  H    0.115696
    29  H    0.119674
 Sum of Mulliken charges =  -0.00000

 Dipole moment (field-independent basis, Debye):
    X=             -0.0000    Y=            -11.1127    Z=              0.0001  Tot=             11.1127
 Quadrupole moment (field-independent basis, Debye-Ang):
   XX=            -26.5379   YY=           -121.2177   ZZ=            -96.2156
   XY=             -0.0000   XZ=             -0.0000   YZ=              0.0006

 Summary of Natural Population Analysis:

                                       Natural Population
                Natural  -----------------------------------------------
    Atom  No    Charge         Core      Valence    Rydberg      Total
 -----------------------------------------------------------------------
      O    1   -1.00598      1.99989     6.98772    0.01838     9.00598
      S    2    2.18671      9.99833     3.61045    0.20451    13.81329
      C    3   -0.36700      1.99872     4.33767    0.03061     6.36700
      C    4   -0.25112      1.99901     4.23456    0.01755     6.25112
      C    5   -0.24605      1.99906     4.23365    0.01334     6.24605
      C    6    0.14638      1.99902     3.83595    0.01865     5.85362
      N    7   -0.76178      1.99948     5.75042    0.01188     7.76178
      C    8   -0.24605      1.99906     4.23365    0.01334     6.24605
      C    9   -0.25113      1.99901     4.23457    0.01755     6.25113
      C   10   -0.36700      1.99872     4.33767    0.03061     6.36700
      C   11   -0.25113      1.99901     4.23456    0.01755     6.25113
      C   12   -0.24605      1.99906     4.23365    0.01334     6.24605
      C   13    0.14638      1.99902     3.83595    0.01865     5.85362
      N   14   -0.76178      1.99948     5.75042    0.01188     7.76178
      C   15   -0.24605      1.99906     4.23365    0.01334     6.24605
      C   16   -0.25113      1.99901     4.23456    0.01755     6.25113
      O   17   -1.00598      1.99989     6.98772    0.01838     9.00598
      H   18    0.26192      0.00000     0.73612    0.00195     0.73808
      H   19    0.25316      0.00000     0.74535    0.00149     0.74684
      H   20    0.42960      0.00000     0.56773    0.00266     0.57040
      H   21    0.42960      0.00000     0.56773    0.00266     0.57040
      H   22    0.25316      0.00000     0.74535    0.00149     0.74684
      H   23    0.26192      0.00000     0.73612    0.00195     0.73808
      H   24    0.26192      0.00000     0.73613    0.00195     0.73808
      H   25    0.25316      0.00000     0.74535    0.00149     0.74684
      H   26    0.42960      0.00000     0.56773    0.00266     0.57040
      H   27    0.42960      0.00000     0.56773    0.00266     0.57040
      H   28    0.25316      0.00000     0.74535    0.00149     0.74684
      H   29    0.26192      0.00000     0.73612    0.00195     0.73808
 =======================================================================
   * Total *    0.00000     41.98482    87.50366    0.51151   130.00000

 Normal termination of Gaussian 16 at Thu Jul 18 15:21:09 2024.
