 Gaussian 16, Revision A.03,

 -------------------------------------------------------
 # opt=CalcFc B3LYP/6-31G** SCRF=(Solvent=water) scf=xqc
 -------------------------------------------------------

 ----------------------------------
 MQJKPEGWNLWLTK-UHFFFAOYSA-N_conf_0
 ----------------------------------
 Symbolic Z-matrix:
 Charge =  0 Multiplicity = 1

 SCF Done:  E(RB3LYP) =  -1122.62439799     A.U. after   13 cycles
 SCF Done:  E(RB3LYP) =  -1122.62969316     A.U. after   11 cycles
 SCF Done:  E(RB3LYP) =  -1122.63036402     A.U. after   13 cycles
 SCF Done:  E(RB3LYP) =  -1122.63042803     A.U. after   12 cycles
 SCF Done:  E(RB3LYP) =  -1122.63044442     A.U. after    9 cycles
 SCF Done:  E(RB3LYP) =  -1122.63044486     A.U. after    7 cycles
 SCF Done:  E(RB3LYP) =  -1122.63044483     A.U. after    7 cycles
 SCF Done:  E(RB3LYP) =  -1122.63044489     A.U. after    7 cycles
 Optimization completed.
    -- Stationary point found.
 Normal termination of Gaussian 16 at Thu Jul 18 14:37:11 2024.

 ----------------------------------------------------------------------
 # freq B3LYP/6-31G** SCRF=(Solvent=water) volume NMR pop=NPA density=c
 urrent Geom=AllCheck Guess=Read
 ----------------------------------------------------------------------

 Structure from the checkpoint file:  "MQJKPEGWNLWLTK-UHFFFAOYSA-N_conf_0_1.chk"
 ----------------------------------
 MQJKPEGWNLWLTK-UHFFFAOYSA-N_conf_0
 ----------------------------------
 Charge =  0 Multiplicity = 1

 SCF Done:  E(RB3LYP) =  -1122.63044489     A.U. after    1 cycles

      1  O    Isotropic =   165.5617   Anisotropy =    43.9898

      2  S    Isotropic =   235.5369   Anisotropy =   229.9373

      3  C    Isotropic =    62.0538   Anisotropy =   104.9504

      4  C    Isotropic =    68.0722   Anisotropy =   167.4098

      5  C    Isotropic =    83.5320   Anisotropy =   129.5706

      6  C    Isotropic =    46.3039   Anisotropy =   167.7623

      7  N    Isotropic =   192.8213   Anisotropy =    70.3365

      8  C    Isotropic =    83.5311   Anisotropy =   129.5720

      9  C    Isotropic =    68.0723   Anisotropy =   167.4102

     10  C    Isotropic =    62.0317   Anisotropy =   104.8364

     11  C    Isotropic =    68.0929   Anisotropy =   167.3981

     12  C    Isotropic =    83.5609   Anisotropy =   129.5068

     13  C    Isotropic =    46.3187   Anisotropy =   167.6957

     14  N    Isotropic =   192.6946   Anisotropy =    70.1687

     15  C    Isotropic =    83.5604   Anisotropy =   129.5076

     16  C    Isotropic =    68.0929   Anisotropy =   167.3987

     17  O    Isotropic =   165.5575   Anisotropy =    43.9847

     18  H    Isotropic =    24.1411   Anisotropy =     8.4113

     19  H    Isotropic =    25.1392   Anisotropy =     5.7581

     20  H    Isotropic =    28.0581   Anisotropy =    12.1546

     21  H    Isotropic =    28.0580   Anisotropy =    12.1546

     22  H    Isotropic =    25.1393   Anisotropy =     5.7584

     23  H    Isotropic =    24.1414   Anisotropy =     8.4114

     24  H    Isotropic =    24.1511   Anisotropy =     8.4123

     25  H    Isotropic =    25.1516   Anisotropy =     5.7512

     26  H    Isotropic =    28.0560   Anisotropy =    12.2536

     27  H    Isotropic =    28.0561   Anisotropy =    12.2537

     28  H    Isotropic =    25.1516   Anisotropy =     5.7514

     29  H    Isotropic =    24.1514   Anisotropy =     8.4126

  Exact polarizability: 280.843   0.020 166.192   0.017  -0.004 220.065
 Approx polarizability: 301.005  -0.773 208.463   0.022  -0.006 288.628

                      1                      2                      3
                      A                      A                      A
 Frequencies --     16.3415                33.4090                38.6816
 Red. masses --      3.5462                 5.9682                 3.8668
 Frc consts  --      0.0006                 0.0039                 0.0034
 IR Inten    --      0.9428                 2.9854                 1.1172

                      4                      5                      6
                      A                      A                      A
 Frequencies --     99.8063               146.6459               158.6393
 Red. masses --      5.5547                 7.5811                 5.1232
 Frc consts  --      0.0326                 0.0961                 0.0760
 IR Inten    --      0.5486                 1.4599                 3.5007

                      7                      8                      9
                      A                      A                      A
 Frequencies --    179.8675               260.3312               274.0022
 Red. masses --      6.4653                 6.5586                 8.3631
 Frc consts  --      0.1232                 0.2619                 0.3699
 IR Inten    --      0.0043                20.8149                 1.1726

                     10                     11                     12
                      A                      A                      A
 Frequencies --    301.7989               312.1435               364.5830
 Red. masses --      7.2979                 7.1599                 6.0069
 Frc consts  --      0.3916                 0.4110                 0.4704
 IR Inten    --      8.0324                 0.0089                15.2046

                     13                     14                     15
                      A                      A                      A
 Frequencies --    369.5834               390.6089               393.8816
 Red. masses --      2.2981                 1.1667                 1.1640
 Frc consts  --      0.1849                 0.1049                 0.1064
 IR Inten    --     19.1606                 0.3879                31.0334

                     16                     17                     18
                      A                      A                      A
 Frequencies --    415.9813               418.3052               421.5999
 Red. masses --      2.9175                 2.9838                 3.0051
 Frc consts  --      0.2974                 0.3076                 0.3147
 IR Inten    --      0.6590                 0.8977                 0.0723

                     19                     20                     21
                      A                      A                      A
 Frequencies --    448.8210               455.6578               474.4952
 Red. masses --      1.4129                 1.3556                 5.5456
 Frc consts  --      0.1677                 0.1658                 0.7356
 IR Inten    --   1004.4044               436.7773                 0.4836

                     22                     23                     24
                      A                      A                      A
 Frequencies --    500.2234               508.1316               542.5623
 Red. masses --      5.4930                 3.0628                 3.3919
 Frc consts  --      0.8098                 0.4659                 0.5883
 IR Inten    --    114.8973               138.6132                56.9637

                     25                     26                     27
                      A                      A                      A
 Frequencies --    555.1561               641.2337               644.7426
 Red. masses --      4.6006                 6.3897                 6.9546
 Frc consts  --      0.8354                 1.5480                 1.7033
 IR Inten    --     90.4240                30.7083                 0.0044

                     28                     29                     30
                      A                      A                      A
 Frequencies --    646.4732               689.6424               713.7614
 Red. masses --      6.9721                 5.5696                 3.9209
 Frc consts  --      1.7168                 1.5607                 1.1769
 IR Inten    --      1.1180               208.3997                16.6672

                     31                     32                     33
                      A                      A                      A
 Frequencies --    717.2164               825.9488               828.5834
 Red. masses --      4.5153                 1.2533                 1.2497
 Frc consts  --      1.3685                 0.5038                 0.5055
 IR Inten    --     82.8997                 0.1895                 0.3883

                     34                     35                     36
                      A                      A                      A
 Frequencies --    833.8385               835.9245               843.8174
 Red. masses --      1.9481                 1.9607                 3.7319
 Frc consts  --      0.7980                 0.8072                 1.5656
 IR Inten    --     27.4965                68.1278                 1.3259

                     37                     38                     39
                      A                      A                      A
 Frequencies --    846.5166               960.6498               966.1712
 Red. masses --      4.0010                 1.2533                 1.2420
 Frc consts  --      1.6892                 0.6815                 0.6831
 IR Inten    --     32.8674                 1.8098                 0.0159

                     40                     41                     42
                      A                      A                      A
 Frequencies --    966.2767               970.5892              1013.6524
 Red. masses --      1.3222                 1.3140                 4.2297
 Frc consts  --      0.7274                 0.7293                 2.5606
 IR Inten    --      0.0017                 0.1729                12.2187

                     43                     44                     45
                      A                      A                      A
 Frequencies --   1019.8551              1059.8766              1078.2140
 Red. masses --      3.2177                 4.6517                 1.4399
 Frc consts  --      1.9719                 3.0787                 0.9862
 IR Inten    --      3.2178               124.8563                 0.3326

                     46                     47                     48
                      A                      A                      A
 Frequencies --   1080.1827              1105.7759              1122.3608
 Red. masses --      1.4390                 3.1120                 4.2346
 Frc consts  --      0.9892                 2.2420                 3.1429
 IR Inten    --      3.6365               334.5753               359.1144

                     49                     50                     51
                      A                      A                      A
 Frequencies --   1155.5850              1157.4662              1205.5814
 Red. masses --      1.1817                 1.1995                 1.1904
 Frc consts  --      0.9298                 0.9468                 1.0194
 IR Inten    --      0.4870                53.6878                36.2518

                     52                     53                     54
                      A                      A                      A
 Frequencies --   1210.3143              1254.4032              1328.9096
 Red. masses --      1.1805                15.5731                 1.5169
 Frc consts  --      1.0189                14.4377                 1.5783
 IR Inten    --      2.8940               248.2759                 0.0010

                     55                     56                     57
                      A                      A                      A
 Frequencies --   1337.0179              1339.8376              1343.1234
 Red. masses --      1.4534                 2.9263                 2.9481
 Frc consts  --      1.5308                 3.0950                 3.1335
 IR Inten    --     13.7811               252.8889                84.7370

                     58                     59                     60
                      A                      A                      A
 Frequencies --   1374.5696              1380.2068              1473.4687
 Red. masses --      4.0337                 4.5913                 3.0621
 Frc consts  --      4.4904                 5.1532                 3.9169
 IR Inten    --      0.0059                17.7775                 0.0921

                     61                     62                     63
                      A                      A                      A
 Frequencies --   1476.4213              1539.6124              1540.6991
 Red. masses --      3.0821                 2.5223                 2.4891
 Frc consts  --      3.9583                 3.5227                 3.4812
 IR Inten    --     11.0179               110.5041                51.1539

                     64                     65                     66
                      A                      A                      A
 Frequencies --   1613.4567              1617.7334              1643.6716
 Red. masses --      6.2619                 6.3117                 3.1933
 Frc consts  --      9.6044                 9.7322                 5.0830
 IR Inten    --      0.0085                30.5629               240.9313

                     67                     68                     69
                      A                      A                      A
 Frequencies --   1644.9185              1662.4022              1663.7058
 Red. masses --      2.9625                 1.3996                 1.4110
 Frc consts  --      4.7227                 2.2789                 2.3011
 IR Inten    --     96.2686               457.6760               291.0143

                     70                     71                     72
                      A                      A                      A
 Frequencies --   3191.7678              3192.0109              3192.9020
 Red. masses --      1.0897                 1.0895                 1.0896
 Frc consts  --      6.5408                 6.5405                 6.5446
 IR Inten    --     11.5247                25.7504                13.8986

                     73                     74                     75
                      A                      A                      A
 Frequencies --   3193.1790              3218.3072              3219.0899
 Red. masses --      1.0894                 1.0926                 1.0936
 Frc consts  --      6.5444                 6.6677                 6.6769
 IR Inten    --     20.8619                 0.0000                 4.0920

                     76                     77                     78
                      A                      A                      A
 Frequencies --   3219.7785              3220.7229              3583.6453
 Red. masses --      1.0926                 1.0936                 1.0477
 Frc consts  --      6.6734                 6.6838                 7.9273
 IR Inten    --     13.4030                 1.0972               111.2198

                     79                     80                     81
                      A                      A                      A
 Frequencies --   3584.1803              3694.2790              3694.8607
 Red. masses --      1.0476                 1.1010                 1.1010
 Frc consts  --      7.9294                 8.8535                 8.8560
 IR Inten    --     85.9963                42.5077                43.2225

 - Thermochemistry -
 -------------------
 Temperature   298.150 Kelvin.  Pressure   1.00000 Atm.
 Atom     1 has atomic number  8 and mass  15.99491

 Molecular mass:   248.06195 amu.
 Principal axes and moments of inertia in atomic units:
                           1         2         3
     Eigenvalues --  2466.643707373.927908169.25532
           X            1.00000   0.00180   0.00000
           Y           -0.00180   1.00000  -0.00000
           Z           -0.00000   0.00000   1.00000
 This molecule is an asymmetric top.
 Rotational symmetry number  1.
 Warning -- assumption of classical behavior for rotation
           may cause significant error
 Rotational temperatures (Kelvin)      0.03511     0.01175     0.01060
 Rotational constants (GHZ):           0.73166     0.24475     0.22092
 Zero-point vibrational energy     590120.2 (Joules/Mol)
                                  141.04211 (Kcal/Mol)
 Warning -- explicit consideration of  25 degrees of freedom as
           vibrations may cause significant error
 Vibrational temperatures:     23.51    48.07    55.65   143.60   210.99
          (Kelvin)            228.25   258.79   374.56   394.23   434.22
                              449.10   524.55   531.75   562.00   566.71
                              598.50   601.85   606.59   645.75   655.59
                              682.69   719.71   731.09   780.63   798.75
                              922.59   927.64   930.13   992.24  1026.94
                             1031.91  1188.36  1192.15  1199.71  1202.71
                             1214.06  1217.95  1382.16  1390.10  1390.26
                             1396.46  1458.42  1467.34  1524.93  1551.31
                             1554.14  1590.96  1614.83  1662.63  1665.34
                             1734.56  1741.37  1804.81  1912.00  1923.67
                             1927.73  1932.46  1977.70  1985.81  2119.99
                             2124.24  2215.16  2216.72  2321.40  2327.56
                             2364.88  2366.67  2391.83  2393.70  4592.24
                             4592.59  4593.87  4594.27  4630.43  4631.55
                             4632.54  4633.90  5156.07  5156.84  5315.24
                             5316.08

 Zero-point correction=                           0.224765 (Hartree/Particle)
 Thermal correction to Energy=                    0.240071
 Thermal correction to Enthalpy=                  0.241015
 Thermal correction to Gibbs Free Energy=         0.180746
 Sum of electronic and zero-point Energies=          -1122.405680
 Sum of electronic and thermal Energies=             -1122.390374
 Sum of electronic and thermal Enthalpies=           -1122.389429
 Sum of electronic and thermal Free Energies=        -1122.449699

                     E (Thermal)             CV                S
                      KCal/Mol        Cal/Mol-Kelvin    Cal/Mol-Kelvin
 Total                  150.647             60.465            126.849
 Electronic               0.000              0.000              0.000
 Translational            0.889              2.981             42.426
 Rotational               0.889              2.981             33.363
 Vibrational            148.870             54.503             51.060
 Vibration     1          0.593              1.986              7.035
 Vibration     2          0.594              1.983              5.616
 Vibration     3          0.594              1.981              5.325
 Vibration     4          0.604              1.949              3.458
 Vibration     5          0.617              1.906              2.715
 Vibration     6          0.621              1.893              2.566
 Vibration     7          0.629              1.867              2.330
 Vibration     8          0.668              1.745              1.660
 Vibration     9          0.676              1.721              1.571
 Vibration    10          0.694              1.670              1.407
 Vibration    11          0.700              1.651              1.351
 Vibration    12          0.738              1.545              1.102
 Vibration    13          0.742              1.535              1.082
 Vibration    14          0.758              1.490              0.998
 Vibration    15          0.761              1.483              0.985
 Vibration    16          0.779              1.436              0.906
 Vibration    17          0.781              1.430              0.898
 Vibration    18          0.784              1.423              0.887
 Vibration    19          0.808              1.363              0.799
 Vibration    20          0.814              1.348              0.779
 Vibration    21          0.831              1.307              0.725
 Vibration    22          0.856              1.250              0.658
 Vibration    23          0.863              1.232              0.638
 Vibration    24          0.898              1.156              0.560
 Vibration    25          0.911              1.128              0.534

 Optimization completed.
    -- Stationary point found.
 Normal termination of Gaussian 16 at Thu Jul 18 14:54:03 2024.
 Gaussian 16:  ES64L-G16RevA.03 25-Dec-2016

 ----------------------------------------------------------------------
 # TD(NStates=10, Root=1) B3LYP/6-31G** SCRF=(Solvent=water) volume pop
 =NPA density=current Geom=AllCheck Guess=Read
 ----------------------------------------------------------------------

 Structure from the checkpoint file:  "MQJKPEGWNLWLTK-UHFFFAOYSA-N_conf_0_2.chk"
 ----------------------------------
 MQJKPEGWNLWLTK-UHFFFAOYSA-N_conf_0
 ----------------------------------
 Charge =  0 Multiplicity = 1

                         Standard orientation:
 ---------------------------------------------------------------------
 Center     Atomic      Atomic             Coordinates (Angstroms)
 Number     Number       Type             X           Y           Z
 ---------------------------------------------------------------------
      1          8           0        0.001763    2.328073   -1.277875
      2         16           0        0.000362    1.579311    0.000039
      3          6           0       -1.437384    0.525888    0.000043
      4          6           0       -1.994217    0.104028   -1.213543
      5          6           0       -3.101753   -0.731113   -1.214284
      6          6           0       -3.676409   -1.167255    0.000030
      7          7           0       -4.807744   -1.952419    0.000037
      8          6           0       -3.101371   -0.731636    1.214353
      9          6           0       -1.993840    0.103510    1.213624
     10          6           0        1.433851    0.520021   -0.000014
     11          6           0        1.991212    0.098761    1.213533
     12          6           0        3.099039   -0.736018    1.214286
     13          6           0        3.672890   -1.173342   -0.000087
     14          7           0        4.738784   -2.045248   -0.000108
     15          6           0        3.098747   -0.736300   -1.214425
     16          6           0        1.990920    0.098477   -1.213599
     17          8           0        0.001835    2.328022    1.277983
     18          1           0       -1.567384    0.440697   -2.151933
     19          1           0       -3.537563   -1.050660   -2.156259
     20          1           0       -5.009650   -2.468592    0.844713
     21          1           0       -5.009898   -2.468241   -0.844794
     22          1           0       -3.536884   -1.051590    2.156327
     23          1           0       -1.566722    0.439772    2.152030
     24          1           0        1.568060    0.440271    2.151839
     25          1           0        3.534853   -1.054772    2.156583
     26          1           0        5.290781   -2.097672    0.844390
     27          1           0        5.290558   -2.097908   -0.844737
     28          1           0        3.534337   -1.055266   -2.156754
     29          1           0        1.567547    0.439765   -2.151886
 ---------------------------------------------------------------------

 SCF Done:  E(RB3LYP) =  -1122.63044489     A.U. after    1 cycles

 Excitation energies and oscillator strengths:

 Excited State   1:      Singlet-A      4.2969 eV  288.54 nm  f=0.7699  <S**2>=0.000
      65 -> 66         0.70447
 This state for optimization and/or second-order correction.
 Total Energy, E(TD-HF/TD-DFT) =  -1122.47253572
 Copying the excited state density for this state as the 1-particle RhoCI density.

 Excited State   2:      Singlet-A      4.5509 eV  272.44 nm  f=0.0000  <S**2>=0.000
      63 -> 66        -0.16118
      64 -> 68         0.12169
      65 -> 67         0.67002

 Excited State   3:      Singlet-A      4.7559 eV  260.70 nm  f=0.0902  <S**2>=0.000
      62 -> 66        -0.19834
      63 -> 69        -0.12281
      64 -> 67         0.30392
      65 -> 68         0.59305

 Excited State   4:      Singlet-A      4.8254 eV  256.94 nm  f=0.1127  <S**2>=0.000
      64 -> 66         0.67878
      65 -> 69        -0.18242

 Excited State   5:      Singlet-A      5.1035 eV  242.94 nm  f=0.0038  <S**2>=0.000
      64 -> 67         0.61789
      65 -> 68        -0.33822

 Excited State   6:      Singlet-A      5.2899 eV  234.38 nm  f=0.0000  <S**2>=0.000
      63 -> 66        -0.20016
      64 -> 68         0.64963
      65 -> 67        -0.17710

 Excited State   7:      Singlet-A      5.3261 eV  232.79 nm  f=0.2535  <S**2>=0.000
      62 -> 67         0.10550
      64 -> 66         0.16643
      65 -> 69         0.67057

 Excited State   8:      Singlet-A      5.6580 eV  219.13 nm  f=0.1669  <S**2>=0.000
      64 -> 69         0.69188

 Excited State   9:      Singlet-A      5.7428 eV  215.90 nm  f=0.0000  <S**2>=0.000
      63 -> 66         0.65092
      64 -> 68         0.22704
      65 -> 67         0.10959

 Excited State  10:      Singlet-A      5.8249 eV  212.85 nm  f=0.2856  <S**2>=0.000
      62 -> 66         0.66914
      64 -> 67         0.12879
      65 -> 68         0.15013

 The electronic state is 1-A.
 Alpha  occ. eigenvalues --  -89.09429 -19.13957 -19.13956 -14.34993 -14.34990
 Alpha  occ. eigenvalues --  -10.24637 -10.24635 -10.21406 -10.21405 -10.20842
 Alpha  occ. eigenvalues --  -10.20839 -10.20839 -10.20837 -10.19564 -10.19564
 Alpha  occ. eigenvalues --  -10.19563 -10.19563  -8.12228  -6.08703  -6.08615
 Alpha  occ. eigenvalues --   -6.08511  -1.09426  -0.99178  -0.92995  -0.92989
 Alpha  occ. eigenvalues --   -0.85822  -0.85288  -0.76868  -0.75935  -0.75875
 Alpha  occ. eigenvalues --   -0.74245  -0.67179  -0.62808  -0.62540  -0.61858
 Alpha  occ. eigenvalues --   -0.58163  -0.54421  -0.53312  -0.52183  -0.51875
 Alpha  occ. eigenvalues --   -0.51324  -0.48613  -0.45862  -0.45207  -0.44899
 Alpha  occ. eigenvalues --   -0.44135  -0.43282  -0.42937  -0.42827  -0.40877
 Alpha  occ. eigenvalues --   -0.40714  -0.39388  -0.39058  -0.35385  -0.35322
 Alpha  occ. eigenvalues --   -0.33872  -0.32724  -0.32166  -0.31607  -0.30005
 Alpha  occ. eigenvalues --   -0.28871  -0.26651  -0.26325  -0.22672  -0.20945
 Alpha virt. eigenvalues --   -0.03242  -0.01775  -0.00796   0.00085   0.06354
 Alpha virt. eigenvalues --    0.08567   0.08750   0.09082   0.10498   0.11032
 Alpha virt. eigenvalues --    0.11940   0.12814   0.13349   0.14066   0.15911

 Mulliken charges:
               1
     1  O   -0.609849
     2  S    1.029338
     3  C   -0.170707
     4  C   -0.118838
     5  C   -0.104242
     6  C    0.259226
     7  N   -0.623114
     8  C   -0.104247
     9  C   -0.118836
    10  C   -0.170764
    11  C   -0.118646
    12  C   -0.103882
    13  C    0.259746
    14  N   -0.622518
    15  C   -0.103886
    16  C   -0.118638
    17  O   -0.609847
    18  H    0.119529
    19  H    0.115626
    20  H    0.302274
    21  H    0.302274
    22  H    0.115626
    23  H    0.119529
    24  H    0.119800
    25  H    0.115838
    26  H    0.301785
    27  H    0.301784
    28  H    0.115838
    29  H    0.119801
 Sum of Mulliken charges =  -0.00000

 Dipole moment (field-independent basis, Debye):
    X=              1.2253    Y=            -12.7658    Z=             -0.0008  Tot=             12.8245
 Quadrupole moment (field-independent basis, Debye-Ang):
   XX=            -39.2440   YY=           -113.6930   ZZ=            -96.2087
   XY=              5.5169   XZ=              0.0020   YZ=              0.0000

 Summary of Natural Population Analysis:

                                       Natural Population
                Natural  -----------------------------------------------
    Atom  No    Charge         Core      Valence    Rydberg      Total
 -----------------------------------------------------------------------
      O    1   -1.00626      1.99989     6.98799    0.01838     9.00626
      S    2    2.18670      9.99833     3.61038    0.20459    13.81330
      C    3   -0.36739      1.99872     4.33805    0.03062     6.36739
      C    4   -0.25136      1.99901     4.23479    0.01755     6.25136
      C    5   -0.24616      1.99906     4.23378    0.01333     6.24616
      C    6    0.14592      1.99902     3.83642    0.01865     5.85408
      N    7   -0.76237      1.99948     5.75098    0.01192     7.76237
      C    8   -0.24618      1.99906     4.23379    0.01333     6.24618
      C    9   -0.25135      1.99901     4.23478    0.01755     6.25135
      C   10   -0.36671      1.99872     4.33737    0.03063     6.36671
      C   11   -0.25110      1.99901     4.23453    0.01755     6.25110
      C   12   -0.24587      1.99906     4.23347    0.01334     6.24587
      C   13    0.14650      1.99902     3.83584    0.01864     5.85350
      N   14   -0.76138      1.99948     5.75003    0.01188     7.76138
      C   15   -0.24588      1.99906     4.23348    0.01334     6.24588
      C   16   -0.25107      1.99901     4.23451    0.01755     6.25107
      O   17   -1.00625      1.99989     6.98799    0.01838     9.00625
      H   18    0.26187      0.00000     0.73618    0.00195     0.73813
      H   19    0.25315      0.00000     0.74537    0.00148     0.74685
      H   20    0.43022      0.00000     0.56727    0.00252     0.56978
      H   21    0.43022      0.00000     0.56727    0.00252     0.56978
      H   22    0.25315      0.00000     0.74537    0.00148     0.74685
      H   23    0.26186      0.00000     0.73619    0.00195     0.73814
      H   24    0.26198      0.00000     0.73606    0.00195     0.73802
      H   25    0.25323      0.00000     0.74528    0.00149     0.74677
      H   26    0.42967      0.00000     0.56767    0.00267     0.57033
      H   27    0.42967      0.00000     0.56767    0.00267     0.57033
      H   28    0.25323      0.00000     0.74528    0.00149     0.74677
      H   29    0.26198      0.00000     0.73606    0.00195     0.73802
 =======================================================================
   * Total *   -0.00000     41.98482    87.50383    0.51135   130.00000

 Normal termination of Gaussian 16 at Thu Jul 18 15:11:15 2024.
