 Gaussian 16, Revision A.03,

 -------------------------------------------------------
 # opt=CalcFc B3LYP/6-31G** SCRF=(Solvent=water) scf=xqc
 -------------------------------------------------------

 ----------------------------------
 KFIGICHILYTCJF-UHFFFAOYSA-N_conf_0
 ----------------------------------
 Symbolic Z-matrix:
 Charge =  0 Multiplicity = 1

 SCF Done:  E(RB3LYP) =  -229.841635423     A.U. after   10 cycles
 SCF Done:  E(RB3LYP) =  -229.844040553     A.U. after    9 cycles
 SCF Done:  E(RB3LYP) =  -229.844109999     A.U. after    9 cycles
 SCF Done:  E(RB3LYP) =  -229.844110653     A.U. after    7 cycles
 Optimization completed.
    -- Stationary point found.
 Normal termination of Gaussian 16 at Thu Jul 11 19:47:21 2024.

 ----------------------------------------------------------------------
 # freq B3LYP/6-31G** SCRF=(Solvent=water) volume NMR pop=NPA density=c
 urrent Geom=AllCheck Guess=Read
 ----------------------------------------------------------------------

 Structure from the checkpoint file:  "KFIGICHILYTCJF-UHFFFAOYSA-N_conf_0_1.chk"
 ----------------------------------
 KFIGICHILYTCJF-UHFFFAOYSA-N_conf_0
 ----------------------------------
 Charge =  0 Multiplicity = 1

 SCF Done:  E(RB3LYP) =  -229.844110653     A.U. after    1 cycles

      1  C    Isotropic =   154.4105   Anisotropy =    54.3576

      2  N    Isotropic =   226.3832   Anisotropy =    45.8596

      3  C    Isotropic =   136.1373   Anisotropy =    53.7555

      4  C    Isotropic =   146.4870   Anisotropy =    37.4759

      5  N    Isotropic =   237.6497   Anisotropy =    27.6223

      6  H    Isotropic =    29.6258   Anisotropy =     8.4412

      7  H    Isotropic =    29.3781   Anisotropy =     8.8655

      8  H    Isotropic =    29.2440   Anisotropy =     9.5587

      9  H    Isotropic =    31.7657   Anisotropy =    12.4326

     10  H    Isotropic =    29.1301   Anisotropy =     4.9257

     11  H    Isotropic =    29.5403   Anisotropy =     4.4308

     12  H    Isotropic =    28.7402   Anisotropy =     6.1783

     13  H    Isotropic =    29.3359   Anisotropy =     5.1811

     14  H    Isotropic =    31.5760   Anisotropy =    12.8782

     15  H    Isotropic =    31.0824   Anisotropy =    15.2008

  Exact polarizability:  67.755   0.329  57.298   0.289   2.370  52.550
 Approx polarizability:  65.658   0.979  63.037  -0.483   2.602  58.012

                      1                      2                      3
                      A                      A                      A
 Frequencies --    113.0242               118.7178               190.5017
 Red. masses --      2.3862                 1.8518                 2.5446
 Frc consts  --      0.0180                 0.0154                 0.0544
 IR Inten    --      6.7256                16.2170                 3.7545

                      4                      5                      6
                      A                      A                      A
 Frequencies --    253.4256               259.8285               420.6232
 Red. masses --      1.1161                 1.2198                 2.9954
 Frc consts  --      0.0422                 0.0485                 0.3122
 IR Inten    --     53.0543                13.8002                 2.6379

                      7                      8                      9
                      A                      A                      A
 Frequencies --    437.5387               803.0868               822.7919
 Red. masses --      3.8032                 1.1720                 1.2027
 Frc consts  --      0.4290                 0.4453                 0.4797
 IR Inten    --      9.4045               160.5615                25.4639

                     10                     11                     12
                      A                      A                      A
 Frequencies --    897.9214               979.9583               990.1531
 Red. masses --      1.3082                 1.6830                 2.4767
 Frc consts  --      0.6214                 0.9522                 1.4306
 IR Inten    --    186.1908                 6.0999                 3.5391

                     13                     14                     15
                      A                      A                      A
 Frequencies --   1077.0873              1103.8735              1126.3265
 Red. masses --      2.6027                 1.3255                 1.5770
 Frc consts  --      1.7790                 0.9516                 1.1787
 IR Inten    --     19.3446                 8.0656                24.2366

                     16                     17                     18
                      A                      A                      A
 Frequencies --   1147.4427              1184.5114              1267.9184
 Red. masses --      2.3480                 1.8607                 1.6192
 Frc consts  --      1.8214                 1.5382                 1.5337
 IR Inten    --     25.1230                19.1038                 7.4293

                     19                     20                     21
                      A                      A                      A
 Frequencies --   1292.9039              1326.1885              1373.1282
 Red. masses --      1.2833                 1.1143                 1.3002
 Frc consts  --      1.2639                 1.1547                 1.4444
 IR Inten    --     16.0198                 1.0868                 8.8612

                     22                     23                     24
                      A                      A                      A
 Frequencies --   1444.1949              1465.6967              1488.9525
 Red. masses --      1.4682                 1.1834                 1.2139
 Frc consts  --      1.8043                 1.4978                 1.5856
 IR Inten    --      1.8624                 4.5406                17.3467

                     25                     26                     27
                      A                      A                      A
 Frequencies --   1495.5861              1514.6104              1522.6456
 Red. masses --      1.0671                 1.0839                 1.0522
 Frc consts  --      1.4062                 1.4650                 1.4373
 IR Inten    --      6.7534                 1.4546                16.8572

                     28                     29                     30
                      A                      A                      A
 Frequencies --   1532.9181              1658.2156              2944.0248
 Red. masses --      1.0895                 1.0871                 1.0703
 Frc consts  --      1.5083                 1.7612                 5.4657
 IR Inten    --      1.9090                36.0803                85.5753

                     31                     32                     33
                      A                      A                      A
 Frequencies --   2955.2730              2979.5013              3025.8323
 Red. masses --      1.0589                 1.0686                 1.0872
 Frc consts  --      5.4488                 5.5892                 5.8646
 IR Inten    --    158.2219               138.9060                22.6726

                     34                     35                     36
                      A                      A                      A
 Frequencies --   3052.2920              3062.6486              3111.5559
 Red. masses --      1.0954                 1.0761                 1.1020
 Frc consts  --      6.0126                 5.9469                 6.2864
 IR Inten    --    122.7774                57.4326                51.7456

                     37                     38                     39
                      A                      A                      A
 Frequencies --   3481.4562              3498.5525              3559.3370
 Red. masses --      1.0513                 1.0740                 1.0912
 Frc consts  --      7.5074                 7.7451                 8.1447
 IR Inten    --      1.0750                 0.8067                 0.0101

 - Thermochemistry -
 -------------------
 Temperature   298.150 Kelvin.  Pressure   1.00000 Atm.
 Atom     1 has atomic number  6 and mass  12.00000

 Molecular mass:    74.08440 amu.
 Principal axes and moments of inertia in atomic units:
                           1         2         3
     Eigenvalues --    90.81120 882.17535 929.94386
           X            0.99986  -0.01351   0.00992
           Y            0.01267   0.99666   0.08066
           Z           -0.01098  -0.08053   0.99669
 This molecule is an asymmetric top.
 Rotational symmetry number  1.
 Rotational temperatures (Kelvin)      0.95378     0.09818     0.09314
 Rotational constants (GHZ):          19.87355     2.04579     1.94070
 Zero-point vibrational energy     364742.9 (Joules/Mol)
                                   87.17564 (Kcal/Mol)
 Warning -- explicit consideration of   7 degrees of freedom as
           vibrations may cause significant error
 Vibrational temperatures:    162.62   170.81   274.09   364.62   373.84
          (Kelvin)            605.18   629.52  1155.46  1183.81  1291.91
                             1409.94  1424.61  1549.69  1588.23  1620.53
                             1650.91  1704.25  1824.25  1860.20  1908.09
                             1975.63  2077.87  2108.81  2142.27  2151.81
                             2179.19  2190.75  2205.53  2385.80  4235.80
                             4251.98  4286.84  4353.50  4391.57  4406.47
                             4476.83  5009.04  5033.64  5121.09

 Zero-point correction=                           0.138923 (Hartree/Particle)
 Thermal correction to Energy=                    0.145735
 Thermal correction to Enthalpy=                  0.146680
 Thermal correction to Gibbs Free Energy=         0.108906
 Sum of electronic and zero-point Energies=           -229.705187
 Sum of electronic and thermal Energies=              -229.698375
 Sum of electronic and thermal Enthalpies=            -229.697431
 Sum of electronic and thermal Free Energies=         -229.735205

                     E (Thermal)             CV                S
                      KCal/Mol        Cal/Mol-Kelvin    Cal/Mol-Kelvin
 Total                   91.450             22.994             79.501
 Electronic               0.000              0.000              0.000
 Translational            0.889              2.981             38.824
 Rotational               0.889              2.981             25.813
 Vibrational             89.673             17.033             14.864
 Vibration     1          0.607              1.939              3.216
 Vibration     2          0.609              1.934              3.121
 Vibration     3          0.634              1.853              2.223
 Vibration     4          0.665              1.757              1.707
 Vibration     5          0.668              1.746              1.663
 Vibration     6          0.783              1.425              0.890
 Vibration     7          0.798              1.388              0.834

 Optimization completed.
    -- Stationary point found.
 Normal termination of Gaussian 16 at Thu Jul 11 19:56:44 2024.
 Gaussian 16:  EM64L-G16RevA.03 25-Dec-2016

 ----------------------------------------------------------------------
 # TD(NStates=10, Root=1) B3LYP/6-31G** SCRF=(Solvent=water) volume pop
 =NPA density=current Geom=AllCheck Guess=Read
 ----------------------------------------------------------------------

 Structure from the checkpoint file:  "KFIGICHILYTCJF-UHFFFAOYSA-N_conf_0_2.chk"
 ----------------------------------
 KFIGICHILYTCJF-UHFFFAOYSA-N_conf_0
 ----------------------------------
 Charge =  0 Multiplicity = 1

                         Standard orientation:
 ---------------------------------------------------------------------
 Center     Atomic      Atomic             Coordinates (Angstroms)
 Number     Number       Type             X           Y           Z
 ---------------------------------------------------------------------
      1          6           0        2.453178   -0.252730    0.000127
      2          7           0        1.209025    0.503790   -0.126927
      3          6           0        0.021731   -0.326390    0.071552
      4          6           0       -1.257981    0.496556   -0.075251
      5          7           0       -2.440626   -0.354150    0.122191
      6          1           0        2.524475   -0.980767   -0.816125
      7          1           0        2.548423   -0.810059    0.948938
      8          1           0        3.307167    0.426264   -0.081900
      9          1           0        1.207399    1.237783    0.579301
     10          1           0        0.007644   -0.839942    1.050574
     11          1           0        0.032112   -1.117308   -0.692178
     12          1           0       -1.232035    1.014468   -1.047756
     13          1           0       -1.272755    1.277297    0.696510
     14          1           0       -2.527032   -0.986723   -0.672135
     15          1           0       -3.275765    0.226888    0.089353
 ---------------------------------------------------------------------

 SCF Done:  E(RB3LYP) =  -229.844110653     A.U. after    1 cycles

 Excitation energies and oscillator strengths:

 Excited State   1:      Singlet-A      7.2086 eV  171.99 nm  f=0.0152  <S**2>=0.000
      21 -> 22        -0.29539
      21 -> 23         0.63538
 This state for optimization and/or second-order correction.
 Total Energy, E(TD-HF/TD-DFT) =  -229.579198975
 Copying the excited state density for this state as the 1-particle RhoCI density.

 Excited State   2:      Singlet-A      7.4509 eV  166.40 nm  f=0.0135  <S**2>=0.000
      20 -> 22         0.55256
      20 -> 23         0.15714
      21 -> 22         0.36680
      21 -> 23         0.17899

 Excited State   3:      Singlet-A      7.6578 eV  161.91 nm  f=0.0026  <S**2>=0.000
      20 -> 22        -0.39017
      20 -> 23        -0.11818
      21 -> 22         0.51960
      21 -> 23         0.23987

 Excited State   4:      Singlet-A      8.1148 eV  152.79 nm  f=0.0052  <S**2>=0.000
      20 -> 22        -0.19106
      20 -> 23         0.66950

 Excited State   5:      Singlet-A      8.2262 eV  150.72 nm  f=0.0436  <S**2>=0.000
      21 -> 24         0.69538

 Excited State   6:      Singlet-A      8.7417 eV  141.83 nm  f=0.0280  <S**2>=0.000
      20 -> 24         0.49032
      20 -> 25        -0.11205
      20 -> 27        -0.11738
      21 -> 25        -0.47100

 Excited State   7:      Singlet-A      8.7782 eV  141.24 nm  f=0.0563  <S**2>=0.000
      20 -> 24         0.43113
      20 -> 25        -0.15071
      21 -> 25         0.51138

 Excited State   8:      Singlet-A      9.1673 eV  135.25 nm  f=0.1305  <S**2>=0.000
      21 -> 26         0.69542

 Excited State   9:      Singlet-A      9.4085 eV  131.78 nm  f=0.1088  <S**2>=0.000
      20 -> 24         0.19207
      20 -> 25         0.64050
      20 -> 26        -0.10597
      20 -> 28         0.12587

 Excited State  10:      Singlet-A      9.5589 eV  129.71 nm  f=0.0190  <S**2>=0.000
      21 -> 27         0.65027
      21 -> 28        -0.16004
      21 -> 29         0.16021
      21 -> 30        -0.11340

 The electronic state is 1-A.
 Alpha  occ. eigenvalues --  -14.31558 -14.31092 -10.20242 -10.19979 -10.19763
 Alpha  occ. eigenvalues --   -0.89926  -0.86954  -0.71896  -0.64147  -0.59517
 Alpha  occ. eigenvalues --   -0.48491  -0.48143  -0.45292  -0.42260  -0.41049
 Alpha  occ. eigenvalues --   -0.39347  -0.36325  -0.34659  -0.33589  -0.23895
 Alpha  occ. eigenvalues --   -0.22159
 Alpha virt. eigenvalues --    0.08806   0.09177   0.12357   0.14122   0.15609
 Alpha virt. eigenvalues --    0.16730   0.18058   0.18329   0.19274   0.20856
 Alpha virt. eigenvalues --    0.22649   0.24731   0.25656   0.28541   0.51405

 Mulliken charges:
               1
     1  C   -0.181324
     2  N   -0.065249
     3  C   -0.070565
     4  C   -0.064046
     5  N   -0.630359
     6  H    0.099306
     7  H    0.106886
     8  H    0.055804
     9  H   -0.110553
    10  H    0.091816
    11  H    0.104216
    12  H    0.093193
    13  H    0.075765
    14  H    0.245766
    15  H    0.249343
 Sum of Mulliken charges =   0.00000

 Dipole moment (field-independent basis, Debye):
    X=             -0.3418    Y=             -0.8316    Z=             -2.3919  Tot=              2.5553
 Quadrupole moment (field-independent basis, Debye-Ang):
   XX=            -31.0880   YY=            -36.2556   ZZ=            -36.2034
   XY=             -3.8225   XZ=              2.6922   YZ=              0.1091

 Summary of Natural Population Analysis:

                                       Natural Population
                Natural  -----------------------------------------------
    Atom  No    Charge         Core      Valence    Rydberg      Total
 -----------------------------------------------------------------------
      C    1   -0.59697      1.99948     4.57190    0.02560     6.59697
      N    2   -0.22284      1.99933     5.20231    0.02120     7.22284
      C    3   -0.38118      1.99932     4.35392    0.02794     6.38118
      C    4   -0.29715      1.99934     4.27698    0.02083     6.29715
      N    5   -0.92708      1.99967     5.91188    0.01554     7.92708
      H    6    0.22038      0.00000     0.75994    0.01968     0.77962
      H    7    0.23661      0.00000     0.73514    0.02826     0.76339
      H    8    0.19382      0.00000     0.77971    0.02647     0.80618
      H    9    0.11783      0.00000     0.77537    0.10679     0.88217
      H   10    0.23322      0.00000     0.73516    0.03162     0.76678
      H   11    0.23176      0.00000     0.75223    0.01601     0.76824
      H   12    0.21038      0.00000     0.78555    0.00407     0.78962
      H   13    0.20825      0.00000     0.77494    0.01681     0.79175
      H   14    0.38117      0.00000     0.61397    0.00486     0.61883
      H   15    0.39180      0.00000     0.60341    0.00479     0.60820
 =======================================================================
   * Total *   -0.00000      9.99714    31.63240    0.37046    42.00000

 1\1\GINC-CN33\SP\RB3LYP TD-FC\6-31G(d,p)\C3H10N2\QDUEZ\11-Jul-2024\0\\
 # TD(NStates=10, Root=1) B3LYP/6-31G** SCRF=(Solvent=water) volume pop
 =NPA density=current Geom=AllCheck Guess=Read\\KFIGICHILYTCJF-UHFFFAOY
 SA-N_conf_0\\0,1\C,0,-2.3378590539,-0.0448207088,-0.4258140757\N,0,-1.
 115079489,-0.6160608492,0.1353232838\C,0,0.0665015239,0.2001205276,-0.
 1403106625\C,0,1.3246698403,-0.4313667015,0.4552476075\N,0,2.502496197
 7,0.3990095531,0.1645000427\H,0,-2.2804759322,-0.0592016331,-1.5202949
 568\H,0,-2.5316232908,0.9983723084,-0.1190017583\H,0,-3.1982466521,-0.

 Normal termination of Gaussian 16 at Thu Jul 11 20:10:46 2024.
