 Gaussian 16, Revision A.03,

 -------------------------------------------------------
 # opt=CalcFc B3LYP/6-31G** SCRF=(Solvent=water) scf=xqc
 -------------------------------------------------------

 ----------------------------------
 KFIGICHILYTCJF-UHFFFAOYSA-N_conf_1
 ----------------------------------
 Symbolic Z-matrix:
 Charge =  0 Multiplicity = 1

 SCF Done:  E(RB3LYP) =  -229.841728294     A.U. after   11 cycles
 SCF Done:  E(RB3LYP) =  -229.844243974     A.U. after   10 cycles
 SCF Done:  E(RB3LYP) =  -229.844544267     A.U. after   10 cycles
 SCF Done:  E(RB3LYP) =  -229.844581344     A.U. after    8 cycles
 SCF Done:  E(RB3LYP) =  -229.844582241     A.U. after    7 cycles
 SCF Done:  E(RB3LYP) =  -229.844582123     A.U. after    7 cycles
 Optimization completed.
    -- Stationary point found.
 Normal termination of Gaussian 16 at Thu Jul 11 19:53:45 2024.

 ----------------------------------------------------------------------
 # freq B3LYP/6-31G** SCRF=(Solvent=water) volume NMR pop=NPA density=c
 urrent Geom=AllCheck Guess=Read
 ----------------------------------------------------------------------

 Structure from the checkpoint file:  "KFIGICHILYTCJF-UHFFFAOYSA-N_conf_1_1.chk"
 ----------------------------------
 KFIGICHILYTCJF-UHFFFAOYSA-N_conf_1
 ----------------------------------
 Charge =  0 Multiplicity = 1

 SCF Done:  E(RB3LYP) =  -229.844582123     A.U. after    1 cycles

      1  C    Isotropic =   157.5056   Anisotropy =    49.9278

      2  N    Isotropic =   235.0255   Anisotropy =    45.7588

      3  C    Isotropic =   138.9063   Anisotropy =    33.3018

      4  C    Isotropic =   152.0286   Anisotropy =    35.3022

      5  N    Isotropic =   238.6424   Anisotropy =    33.8454

      6  H    Isotropic =    29.4250   Anisotropy =     9.5510

      7  H    Isotropic =    29.3274   Anisotropy =     8.0354

      8  H    Isotropic =    29.7463   Anisotropy =     9.3869

      9  H    Isotropic =    31.2570   Anisotropy =    15.6935

     10  H    Isotropic =    29.2211   Anisotropy =     7.2426

     11  H    Isotropic =    28.9697   Anisotropy =     8.2711

     12  H    Isotropic =    28.6110   Anisotropy =     7.0982

     13  H    Isotropic =    29.5678   Anisotropy =     8.3442

     14  H    Isotropic =    31.4534   Anisotropy =    15.4759

     15  H    Isotropic =    30.4330   Anisotropy =    11.3682

  Exact polarizability:  63.867  -0.269  57.619  -0.867   1.443  56.187
 Approx polarizability:  64.657  -0.342  61.250  -0.901   1.907  62.215

                      1                      2                      3
                      A                      A                      A
 Frequencies --     81.3852               162.0761               233.1075
 Red. masses --      2.5021                 1.6348                 1.3762
 Frc consts  --      0.0098                 0.0253                 0.0441
 IR Inten    --      2.5698                 3.9049                 3.5078

                      4                      5                      6
                      A                      A                      A
 Frequencies --    253.6508               323.6788               419.7841
 Red. masses --      1.2412                 2.0816                 1.8135
 Frc consts  --      0.0471                 0.1285                 0.1883
 IR Inten    --     69.7874                28.8085                13.9877

                      7                      8                      9
                      A                      A                      A
 Frequencies --    515.3662               777.7408               840.2874
 Red. masses --      2.1590                 1.5117                 1.8969
 Frc consts  --      0.3379                 0.5388                 0.7891
 IR Inten    --     17.1498               152.5869                 0.3188

                     10                     11                     12
                      A                      A                      A
 Frequencies --    887.7535               922.1519               985.2927
 Red. masses --      1.8966                 1.3245                 1.7852
 Frc consts  --      0.8807                 0.6636                 1.0211
 IR Inten    --    109.9766                78.6047                10.5151

                     13                     14                     15
                      A                      A                      A
 Frequencies --   1054.0417              1099.0941              1142.7704
 Red. masses --      1.8107                 1.7020                 1.3226
 Frc consts  --      1.1853                 1.2114                 1.0177
 IR Inten    --     43.4973                12.5020                 0.9894

                     16                     17                     18
                      A                      A                      A
 Frequencies --   1152.5302              1199.3649              1209.2215
 Red. masses --      2.5495                 1.4791                 1.6141
 Frc consts  --      1.9953                 1.2535                 1.3906
 IR Inten    --     27.6672                14.0227                 8.7510

                     19                     20                     21
                      A                      A                      A
 Frequencies --   1293.7912              1345.1806              1397.8928
 Red. masses --      1.2753                 1.1631                 1.3197
 Frc consts  --      1.2577                 1.2401                 1.5194
 IR Inten    --     16.5131                 4.1138                26.2274

                     22                     23                     24
                      A                      A                      A
 Frequencies --   1428.8193              1464.0868              1488.7250
 Red. masses --      1.4156                 1.1688                 1.1732
 Frc consts  --      1.7027                 1.4762                 1.5320
 IR Inten    --     14.2329                 0.2195                 4.0523

                     25                     26                     27
                      A                      A                      A
 Frequencies --   1490.6064              1501.0189              1522.7690
 Red. masses --      1.1326                 1.0870                 1.0646
 Frc consts  --      1.4827                 1.4429                 1.4545
 IR Inten    --      4.0854                 5.9160                 9.1477

                     28                     29                     30
                      A                      A                      A
 Frequencies --   1525.2426              1635.3758              2950.6698
 Red. masses --      1.0842                 1.0862                 1.0712
 Frc consts  --      1.4861                 1.7116                 5.4947
 IR Inten    --      7.6844                57.7754                97.5158

                     31                     32                     33
                      A                      A                      A
 Frequencies --   2958.3322              2966.1757              3052.2621
 Red. masses --      1.0586                 1.0731                 1.0886
 Frc consts  --      5.4586                 5.5628                 5.9754
 IR Inten    --    100.7348               163.7916                72.6942

                     34                     35                     36
                      A                      A                      A
 Frequencies --   3075.4971              3076.7283              3117.6191
 Red. masses --      1.0776                 1.0884                 1.1032
 Frc consts  --      6.0051                 6.0704                 6.3176
 IR Inten    --     87.0187                37.0332                45.9911

                     37                     38                     39
                      A                      A                      A
 Frequencies --   3475.1798              3535.8491              3558.2450
 Red. masses --      1.0508                 1.0750                 1.0911
 Frc consts  --      7.4766                 7.9187                 8.1389
 IR Inten    --      7.6204                 0.3691                 1.8832

 - Thermochemistry -
 -------------------
 Temperature   298.150 Kelvin.  Pressure   1.00000 Atm.
 Atom     1 has atomic number  6 and mass  12.00000

 Molecular mass:    74.08440 amu.
 Principal axes and moments of inertia in atomic units:
                           1         2         3
     Eigenvalues --   192.99853 629.59993 662.59898
           X            1.00000  -0.00196  -0.00239
           Y            0.00179   0.99761  -0.06903
           Z            0.00252   0.06903   0.99761
 This molecule is an asymmetric top.
 Rotational symmetry number  1.
 Rotational temperatures (Kelvin)      0.44878     0.13757     0.13072
 Rotational constants (GHZ):           9.35106     2.86649     2.72373
 Zero-point vibrational energy     365575.0 (Joules/Mol)
                                   87.37452 (Kcal/Mol)
 Warning -- explicit consideration of   7 degrees of freedom as
           vibrations may cause significant error
 Vibrational temperatures:    117.10   233.19   335.39   364.95   465.70
          (Kelvin)            603.98   741.50  1119.00  1208.99  1277.28
                             1326.77  1417.62  1516.53  1581.35  1644.19
                             1658.23  1725.62  1739.80  1861.48  1935.41
                             2011.26  2055.75  2106.49  2141.94  2144.65
                             2159.63  2190.92  2194.48  2352.94  4245.36
                             4256.38  4267.67  4391.52  4424.95  4426.73
                             4485.56  5000.01  5087.30  5119.52

 Zero-point correction=                           0.139240 (Hartree/Particle)
 Thermal correction to Energy=                    0.145848
 Thermal correction to Enthalpy=                  0.146792
 Thermal correction to Gibbs Free Energy=         0.109388
 Sum of electronic and zero-point Energies=           -229.705342
 Sum of electronic and thermal Energies=              -229.698735
 Sum of electronic and thermal Enthalpies=            -229.697790
 Sum of electronic and thermal Free Energies=         -229.735194

                     E (Thermal)             CV                S
                      KCal/Mol        Cal/Mol-Kelvin    Cal/Mol-Kelvin
 Total                   91.521             22.758             78.723
 Electronic               0.000              0.000              0.000
 Translational            0.889              2.981             38.824
 Rotational               0.889              2.981             25.890
 Vibrational             89.743             16.796             14.009
 Vibration     1          0.600              1.962              3.857
 Vibration     2          0.622              1.889              2.525
 Vibration     3          0.654              1.790              1.855
 Vibration     4          0.665              1.757              1.705
 Vibration     5          0.708              1.628              1.291
 Vibration     6          0.782              1.427              0.893
 Vibration     7          0.870              1.216              0.621

 Optimization completed.
    -- Stationary point found.
 Normal termination of Gaussian 16 at Thu Jul 11 20:03:16 2024.
 Gaussian 16:  EM64L-G16RevA.03 25-Dec-2016

 ----------------------------------------------------------------------
 # TD(NStates=10, Root=1) B3LYP/6-31G** SCRF=(Solvent=water) volume pop
 =NPA density=current Geom=AllCheck Guess=Read
 ----------------------------------------------------------------------

 Structure from the checkpoint file:  "KFIGICHILYTCJF-UHFFFAOYSA-N_conf_1_2.chk"
 ----------------------------------
 KFIGICHILYTCJF-UHFFFAOYSA-N_conf_1
 ----------------------------------
 Charge =  0 Multiplicity = 1

                         Standard orientation:
 ---------------------------------------------------------------------
 Center     Atomic      Atomic             Coordinates (Angstroms)
 Number     Number       Type             X           Y           Z
 ---------------------------------------------------------------------
      1          6           0        1.930751   -0.480302    0.379332
      2          7           0        0.972721   -0.044902   -0.636656
      3          6           0        0.002875    0.945487   -0.152181
      4          6           0       -1.161492    0.280607    0.584890
      5          7           0       -1.887653   -0.607478   -0.332819
      6          1           0        2.671304   -1.142810   -0.078249
      7          1           0        1.420378   -1.049574    1.162740
      8          1           0        2.467183    0.351067    0.869717
      9          1           0        1.488069    0.359360   -1.413129
     10          1           0        0.466213    1.700124    0.508531
     11          1           0       -0.399214    1.473673   -1.023785
     12          1           0       -0.777923   -0.231307    1.483957
     13          1           0       -1.841079    1.064578    0.941889
     14          1           0       -2.527518   -1.194688    0.198153
     15          1           0       -1.195697   -1.238515   -0.735746
 ---------------------------------------------------------------------

 SCF Done:  E(RB3LYP) =  -229.844582123     A.U. after    1 cycles

 Excitation energies and oscillator strengths:

 Excited State   1:      Singlet-A      7.0694 eV  175.38 nm  f=0.0119  <S**2>=0.000
      21 -> 22         0.68776
 This state for optimization and/or second-order correction.
 Total Energy, E(TD-HF/TD-DFT) =  -229.584786741
 Copying the excited state density for this state as the 1-particle RhoCI density.

 Excited State   2:      Singlet-A      7.5133 eV  165.02 nm  f=0.0160  <S**2>=0.000
      20 -> 22         0.60098
      20 -> 23         0.11149
      21 -> 23         0.32131

 Excited State   3:      Singlet-A      7.9086 eV  156.77 nm  f=0.0073  <S**2>=0.000
      20 -> 22        -0.30197
      20 -> 23        -0.13013
      21 -> 23         0.60552
      21 -> 24         0.11819

 Excited State   4:      Singlet-A      8.3049 eV  149.29 nm  f=0.0164  <S**2>=0.000
      20 -> 22        -0.18443
      20 -> 23         0.56598
      21 -> 23         0.10035
      21 -> 24        -0.32997

 Excited State   5:      Singlet-A      8.5042 eV  145.79 nm  f=0.1142  <S**2>=0.000
      20 -> 23         0.34584
      21 -> 24         0.59707
      21 -> 25        -0.10067

 Excited State   6:      Singlet-A      8.8077 eV  140.77 nm  f=0.0210  <S**2>=0.000
      20 -> 24        -0.43803
      21 -> 25         0.51825
      21 -> 26        -0.10292

 Excited State   7:      Singlet-A      8.8691 eV  139.79 nm  f=0.1009  <S**2>=0.000
      20 -> 23         0.11543
      20 -> 24         0.47983
      21 -> 25         0.45161
      21 -> 26         0.15279

 Excited State   8:      Singlet-A      8.9782 eV  138.10 nm  f=0.1061  <S**2>=0.000
      20 -> 24        -0.14543
      20 -> 25         0.12289
      21 -> 26         0.65310
      21 -> 27        -0.11573

 Excited State   9:      Singlet-A      9.2431 eV  134.14 nm  f=0.0684  <S**2>=0.000
      20 -> 24         0.11195
      20 -> 25         0.63594
      20 -> 26         0.13947
      21 -> 29         0.14512

 Excited State  10:      Singlet-A      9.4862 eV  130.70 nm  f=0.0202  <S**2>=0.000
      20 -> 24        -0.11025
      20 -> 26         0.18499
      20 -> 27        -0.11798
      21 -> 26         0.12585
      21 -> 27         0.62965

 The electronic state is 1-A.
 Alpha  occ. eigenvalues --  -14.31777 -14.30277 -10.20139 -10.19894 -10.19795
 Alpha  occ. eigenvalues --   -0.90085  -0.86084  -0.71638  -0.65581  -0.57472
 Alpha  occ. eigenvalues --   -0.49773  -0.48009  -0.43934  -0.42826  -0.41632
 Alpha  occ. eigenvalues --   -0.38057  -0.36692  -0.34354  -0.33752  -0.23709
 Alpha  occ. eigenvalues --   -0.22060
 Alpha virt. eigenvalues --    0.08254   0.10902   0.12898   0.14281   0.15166
 Alpha virt. eigenvalues --    0.16882   0.17583   0.18321   0.19934   0.21831
 Alpha virt. eigenvalues --    0.22261   0.24224   0.25630   0.28280   0.51239

 Mulliken charges:
               1
     1  C   -0.166157
     2  N   -0.166744
     3  C   -0.046371
     4  C   -0.023029
     5  N   -0.526922
     6  H    0.045270
     7  H    0.083771
     8  H    0.125781
     9  H    0.004385
    10  H    0.121864
    11  H    0.042444
    12  H    0.059434
    13  H    0.065965
    14  H    0.192022
    15  H    0.188289
 Sum of Mulliken charges =  -0.00000

 Dipole moment (field-independent basis, Debye):
    X=              1.0237    Y=             -0.1997    Z=              1.8107  Tot=              2.0896
 Quadrupole moment (field-independent basis, Debye-Ang):
   XX=            -37.6089   YY=            -33.2157   ZZ=            -36.7629
   XY=              1.5263   XZ=             -0.5049   YZ=              0.8341

 Summary of Natural Population Analysis:

                                       Natural Population
                Natural  -----------------------------------------------
    Atom  No    Charge         Core      Valence    Rydberg      Total
 -----------------------------------------------------------------------
      C    1   -0.57405      1.99946     4.55038    0.02421     6.57405
      N    2   -0.28870      1.99939     5.27403    0.01527     7.28870
      C    3   -0.34371      1.99930     4.32482    0.01959     6.34371
      C    4   -0.28425      1.99932     4.26810    0.01683     6.28425
      N    5   -0.83668      1.99962     5.82173    0.01533     7.83668
      H    6    0.18046      0.00000     0.79212    0.02741     0.81954
      H    7    0.20423      0.00000     0.77096    0.02481     0.79577
      H    8    0.24831      0.00000     0.73376    0.01793     0.75169
      H    9    0.18843      0.00000     0.71889    0.09268     0.81157
      H   10    0.25067      0.00000     0.73021    0.01912     0.74933
      H   11    0.18920      0.00000     0.77955    0.03125     0.81080
      H   12    0.19176      0.00000     0.78329    0.02495     0.80824
      H   13    0.19947      0.00000     0.78387    0.01666     0.80053
      H   14    0.34000      0.00000     0.63365    0.02635     0.66000
      H   15    0.33485      0.00000     0.64046    0.02468     0.66515
 =======================================================================
   * Total *   -0.00000      9.99708    31.60583    0.39708    42.00000

 1\1\GINC-CN13\SP\RB3LYP TD-FC\6-31G(d,p)\C3H10N2\QDUEZ\11-Jul-2024\0\\
 # TD(NStates=10, Root=1) B3LYP/6-31G** SCRF=(Solvent=water) volume pop
 =NPA density=current Geom=AllCheck Guess=Read\\KFIGICHILYTCJF-UHFFFAOY
 SA-N_conf_1\\0,1\C,0,1.7974525002,0.409578873,0.6497443664\N,0,0.62481
 31132,-0.3630861928,1.059052953\C,0,-0.126099266,-0.941200406,-0.06259
 87196\C,0,-1.0813857461,0.0782100053,-0.686552445\N,0,-2.0728584609,0.
 5043252223,0.3102444376\H,0,2.3520436391,0.7279414983,1.5373189891\H,0
 ,1.4884709532,1.3128098726,0.1140361074\H,0,2.4883685561,-0.146186669,

 Normal termination of Gaussian 16 at Thu Jul 11 20:16:50 2024.
