 Gaussian 16, Revision A.03,

 -------------------------------------------------------
 # opt=CalcFc B3LYP/6-31G** SCRF=(Solvent=water) scf=xqc
 -------------------------------------------------------

 ----------------------------------
 KFIGICHILYTCJF-UHFFFAOYSA-N_conf_2
 ----------------------------------
 Symbolic Z-matrix:
 Charge =  0 Multiplicity = 1

 SCF Done:  E(RB3LYP) =  -229.843557400     A.U. after   11 cycles
 SCF Done:  E(RB3LYP) =  -229.846123238     A.U. after    9 cycles
 SCF Done:  E(RB3LYP) =  -229.846428574     A.U. after    9 cycles
 SCF Done:  E(RB3LYP) =  -229.846449896     A.U. after    8 cycles
 SCF Done:  E(RB3LYP) =  -229.846451522     A.U. after    7 cycles
 SCF Done:  E(RB3LYP) =  -229.846451612     A.U. after    6 cycles
 Optimization completed.
    -- Stationary point found.
 Normal termination of Gaussian 16 at Thu Jul 11 19:52:36 2024.

 ----------------------------------------------------------------------
 # freq B3LYP/6-31G** SCRF=(Solvent=water) volume NMR pop=NPA density=c
 urrent Geom=AllCheck Guess=Read
 ----------------------------------------------------------------------

 Structure from the checkpoint file:  "KFIGICHILYTCJF-UHFFFAOYSA-N_conf_2_1.chk"
 ----------------------------------
 KFIGICHILYTCJF-UHFFFAOYSA-N_conf_2
 ----------------------------------
 Charge =  0 Multiplicity = 1

 SCF Done:  E(RB3LYP) =  -229.846451612     A.U. after    1 cycles

      1  C    Isotropic =   154.7018   Anisotropy =    53.7607

      2  N    Isotropic =   226.5856   Anisotropy =    62.6156

      3  C    Isotropic =   134.7068   Anisotropy =    33.2750

      4  C    Isotropic =   146.9232   Anisotropy =    26.8958

      5  N    Isotropic =   237.9866   Anisotropy =    36.0575

      6  H    Isotropic =    29.3645   Anisotropy =     9.1480

      7  H    Isotropic =    29.6421   Anisotropy =     8.4900

      8  H    Isotropic =    29.1723   Anisotropy =     9.5585

      9  H    Isotropic =    31.8894   Anisotropy =    12.6989

     10  H    Isotropic =    29.0472   Anisotropy =     6.7423

     11  H    Isotropic =    29.6715   Anisotropy =     5.9266

     12  H    Isotropic =    29.2311   Anisotropy =     7.6538

     13  H    Isotropic =    29.3485   Anisotropy =     7.6195

     14  H    Isotropic =    30.2010   Anisotropy =    11.7092

     15  H    Isotropic =    31.7915   Anisotropy =    13.8311

  Exact polarizability:  63.544   0.866  58.431   1.813  -0.193  57.299
 Approx polarizability:  63.169   0.328  63.123   1.947   0.504  63.382

                      1                      2                      3
                      A                      A                      A
 Frequencies --    101.0499               152.7081               232.5268
 Red. masses --      2.6216                 2.0090                 1.4678
 Frc consts  --      0.0158                 0.0276                 0.0468
 IR Inten    --      4.6250                 0.6230                23.2077

                      4                      5                      6
                      A                      A                      A
 Frequencies --    257.8038               321.1620               356.8762
 Red. masses --      1.2611                 1.4355                 2.0637
 Frc consts  --      0.0494                 0.0872                 0.1549
 IR Inten    --      5.4402                55.1521                10.6488

                      7                      8                      9
                      A                      A                      A
 Frequencies --    528.8759               773.1775               860.8121
 Red. masses --      2.2954                 1.5252                 1.2882
 Frc consts  --      0.3783                 0.5372                 0.5624
 IR Inten    --      9.0976               139.9544                15.7536

                     10                     11                     12
                      A                      A                      A
 Frequencies --    888.1236               946.4529               990.1114
 Red. masses --      2.2061                 1.4755                 1.4102
 Frc consts  --      1.0253                 0.7787                 0.8145
 IR Inten    --     33.4914               194.2564                 4.0931

                     13                     14                     15
                      A                      A                      A
 Frequencies --   1045.9868              1094.0350              1131.4394
 Red. masses --      2.7292                 1.2728                 1.5616
 Frc consts  --      1.7593                 0.8976                 1.1779
 IR Inten    --    102.8131                23.6942                 1.4642

                     16                     17                     18
                      A                      A                      A
 Frequencies --   1143.5637              1181.0925              1264.5645
 Red. masses --      2.7462                 1.8155                 1.6296
 Frc consts  --      2.1159                 1.4921                 1.5353
 IR Inten    --     50.7617                20.3278                 1.6245

                     19                     20                     21
                      A                      A                      A
 Frequencies --   1291.0364              1384.1145              1398.7080
 Red. masses --      1.2519                 1.3093                 1.1820
 Frc consts  --      1.2294                 1.4779                 1.3624
 IR Inten    --      3.9684                14.0940                 8.9936

                     22                     23                     24
                      A                      A                      A
 Frequencies --   1400.1691              1464.9270              1481.1474
 Red. masses --      1.3848                 1.1670                 1.1833
 Frc consts  --      1.5996                 1.4756                 1.5295
 IR Inten    --     16.0589                 2.3247                14.5446

                     25                     26                     27
                      A                      A                      A
 Frequencies --   1494.9455              1500.8692              1515.5368
 Red. masses --      1.0537                 1.1154                 1.0971
 Frc consts  --      1.3875                 1.4803                 1.4847
 IR Inten    --     12.0921                 0.2021                 7.6231

                     28                     29                     30
                      A                      A                      A
 Frequencies --   1523.1983              1664.6909              2930.0810
 Red. masses --      1.0536                 1.0841                 1.0719
 Frc consts  --      1.4402                 1.7700                 5.4219
 IR Inten    --     12.0609                31.4531               134.8842

                     31                     32                     33
                      A                      A                      A
 Frequencies --   2958.7026              3019.3597              3039.2286
 Red. masses --      1.0581                 1.0687                 1.0861
 Frc consts  --      5.4573                 5.7402                 5.9108
 IR Inten    --    143.6134                41.9219                99.8468

                     34                     35                     36
                      A                      A                      A
 Frequencies --   3064.7630              3080.3493              3112.3590
 Red. masses --      1.0762                 1.0983                 1.1025
 Frc consts  --      5.9558                 6.1402                 6.2921
 IR Inten    --     58.2272                68.2795                50.1638

                     37                     38                     39
                      A                      A                      A
 Frequencies --   3463.6160              3496.8363              3538.6972
 Red. masses --      1.0502                 1.0740                 1.0907
 Frc consts  --      7.4231                 7.7376                 8.0469
 IR Inten    --      3.6115                 0.3864                 1.9115

 - Thermochemistry -
 -------------------
 Temperature   298.150 Kelvin.  Pressure   1.00000 Atm.
 Atom     1 has atomic number  6 and mass  12.00000

 Molecular mass:    74.08440 amu.
 Principal axes and moments of inertia in atomic units:
                           1         2         3
     Eigenvalues --   149.27145 719.30253 784.42516
           X            0.99997   0.00759   0.00031
           Y           -0.00758   0.99974  -0.02161
           Z           -0.00047   0.02161   0.99977
 This molecule is an asymmetric top.
 Rotational symmetry number  1.
 Rotational temperatures (Kelvin)      0.58024     0.12041     0.11042
 Rotational constants (GHZ):          12.09033     2.50902     2.30072
 Zero-point vibrational energy     365421.5 (Joules/Mol)
                                   87.33783 (Kcal/Mol)
 Warning -- explicit consideration of   7 degrees of freedom as
           vibrations may cause significant error
 Vibrational temperatures:    145.39   219.71   334.55   370.92   462.08
          (Kelvin)            513.47   760.93  1112.43  1238.52  1277.81
                             1361.73  1424.55  1504.94  1574.07  1627.89
                             1645.33  1699.33  1819.43  1857.51  1991.43
                             2012.43  2014.53  2107.70  2131.04  2150.89
                             2159.42  2180.52  2191.54  2395.12  4215.73
                             4256.91  4344.19  4372.77  4409.51  4431.94
                             4477.99  4983.37  5031.17  5091.40

 Zero-point correction=                           0.139182 (Hartree/Particle)
 Thermal correction to Energy=                    0.145811
 Thermal correction to Enthalpy=                  0.146755
 Thermal correction to Gibbs Free Energy=         0.109392
 Sum of electronic and zero-point Energies=           -229.707270
 Sum of electronic and thermal Energies=              -229.700641
 Sum of electronic and thermal Enthalpies=            -229.699697
 Sum of electronic and thermal Free Energies=         -229.737059

                     E (Thermal)             CV                S
                      KCal/Mol        Cal/Mol-Kelvin    Cal/Mol-Kelvin
 Total                   91.498             22.799             78.636
 Electronic               0.000              0.000              0.000
 Translational            0.889              2.981             38.824
 Rotational               0.889              2.981             25.935
 Vibrational             89.720             16.837             13.877
 Vibration     1          0.604              1.948              3.434
 Vibration     2          0.619              1.900              2.638
 Vibration     3          0.653              1.791              1.859
 Vibration     4          0.667              1.750              1.677
 Vibration     5          0.707              1.633              1.304
 Vibration     6          0.732              1.561              1.136
 Vibration     7          0.884              1.186              0.590

 Optimization completed.
    -- Stationary point found.
 Normal termination of Gaussian 16 at Thu Jul 11 20:00:56 2024.
 Gaussian 16:  EM64L-G16RevA.03 25-Dec-2016

 ----------------------------------------------------------------------
 # TD(NStates=10, Root=1) B3LYP/6-31G** SCRF=(Solvent=water) volume pop
 =NPA density=current Geom=AllCheck Guess=Read
 ----------------------------------------------------------------------

 Structure from the checkpoint file:  "KFIGICHILYTCJF-UHFFFAOYSA-N_conf_2_2.chk"
 ----------------------------------
 KFIGICHILYTCJF-UHFFFAOYSA-N_conf_2
 ----------------------------------
 Charge =  0 Multiplicity = 1

                         Standard orientation:
 ---------------------------------------------------------------------
 Center     Atomic      Atomic             Coordinates (Angstroms)
 Number     Number       Type             X           Y           Z
 ---------------------------------------------------------------------
      1          6           0       -2.279689   -0.234882    0.134963
      2          7           0       -0.903130   -0.290117   -0.352867
      3          6           0       -0.035370    0.719075    0.256925
      4          6           0        1.412864    0.541392   -0.215819
      5          7           0        2.018331   -0.759995    0.098597
      6          1           0       -2.754827    0.756541    0.032460
      7          1           0       -2.302775   -0.501856    1.197556
      8          1           0       -2.891957   -0.962123   -0.406680
      9          1           0       -0.910562   -0.137478   -1.360113
     10          1           0       -0.369596    1.754179    0.052588
     11          1           0       -0.078559    0.585660    1.346802
     12          1           0        2.033265    1.333712    0.218034
     13          1           0        1.448741    0.681468   -1.305555
     14          1           0        1.337091   -1.472538   -0.163976
     15          1           0        2.095939   -0.840290    1.112362
 ---------------------------------------------------------------------

 SCF Done:  E(RB3LYP) =  -229.846451612     A.U. after    1 cycles

 Excitation energies and oscillator strengths:

 Excited State   1:      Singlet-A      7.2018 eV  172.16 nm  f=0.0118  <S**2>=0.000
      21 -> 22         0.68652
      21 -> 23        -0.14841
 This state for optimization and/or second-order correction.
 Total Energy, E(TD-HF/TD-DFT) =  -229.581788675
 Copying the excited state density for this state as the 1-particle RhoCI density.

 Excited State   2:      Singlet-A      7.6125 eV  162.87 nm  f=0.0185  <S**2>=0.000
      20 -> 22         0.63986
      20 -> 23         0.25078
      21 -> 23         0.14202

 Excited State   3:      Singlet-A      8.0058 eV  154.87 nm  f=0.0466  <S**2>=0.000
      20 -> 22        -0.12279
      21 -> 22         0.14876
      21 -> 23         0.66085
      21 -> 24         0.10895

 Excited State   4:      Singlet-A      8.3106 eV  149.19 nm  f=0.0646  <S**2>=0.000
      21 -> 23        -0.11478
      21 -> 24         0.68847

 Excited State   5:      Singlet-A      8.3762 eV  148.02 nm  f=0.0585  <S**2>=0.000
      20 -> 22        -0.25820
      20 -> 23         0.62857
      20 -> 24         0.13411

 Excited State   6:      Singlet-A      8.7414 eV  141.84 nm  f=0.0954  <S**2>=0.000
      21 -> 25         0.68726

 Excited State   7:      Singlet-A      8.8569 eV  139.99 nm  f=0.0245  <S**2>=0.000
      20 -> 24         0.60917
      20 -> 25         0.27029
      20 -> 27        -0.10416

 Excited State   8:      Singlet-A      9.0359 eV  137.21 nm  f=0.0316  <S**2>=0.000
      20 -> 23         0.11444
      20 -> 24        -0.27888
      20 -> 25         0.62344

 Excited State   9:      Singlet-A      9.3709 eV  132.31 nm  f=0.0808  <S**2>=0.000
      21 -> 26         0.53795
      21 -> 27        -0.41428
      21 -> 28        -0.15647

 Excited State  10:      Singlet-A      9.4579 eV  131.09 nm  f=0.0227  <S**2>=0.000
      21 -> 26         0.43378
      21 -> 27         0.52404

 The electronic state is 1-A.
 Alpha  occ. eigenvalues --  -14.31749 -14.30612 -10.20180 -10.19993 -10.19848
 Alpha  occ. eigenvalues --   -0.90221  -0.86409  -0.71691  -0.64685  -0.59496
 Alpha  occ. eigenvalues --   -0.48715  -0.47828  -0.44037  -0.43085  -0.41173
 Alpha  occ. eigenvalues --   -0.38155  -0.36833  -0.35143  -0.33893  -0.23682
 Alpha  occ. eigenvalues --   -0.22358
 Alpha virt. eigenvalues --    0.08602   0.10976   0.12531   0.13706   0.16303
 Alpha virt. eigenvalues --    0.16519   0.17213   0.18538   0.18781   0.19722
 Alpha virt. eigenvalues --    0.22744   0.25120   0.26401   0.27954   0.51333

 Mulliken charges:
               1
     1  C   -0.209399
     2  N   -0.098274
     3  C   -0.051387
     4  C   -0.051620
     5  N   -0.573061
     6  H    0.143375
     7  H    0.117541
     8  H    0.090283
     9  H   -0.037069
    10  H    0.096148
    11  H    0.072598
    12  H    0.080569
    13  H    0.054616
    14  H    0.177144
    15  H    0.188535
 Sum of Mulliken charges =  -0.00000

 Dipole moment (field-independent basis, Debye):
    X=             -3.5295    Y=              0.7027    Z=              1.8960  Tot=              4.0676
 Quadrupole moment (field-independent basis, Debye-Ang):
   XX=            -39.1553   YY=            -33.8167   ZZ=            -36.3041
   XY=              2.2126   XZ=              0.6892   YZ=             -0.2089

 Summary of Natural Population Analysis:

                                       Natural Population
                Natural  -----------------------------------------------
    Atom  No    Charge         Core      Valence    Rydberg      Total
 -----------------------------------------------------------------------
      C    1   -0.59416      1.99947     4.57052    0.02417     6.59416
      N    2   -0.22783      1.99935     5.21175    0.01673     7.22783
      C    3   -0.36880      1.99930     4.34973    0.01977     6.36880
      C    4   -0.29547      1.99937     4.27616    0.01994     6.29547
      N    5   -0.91545      1.99970     5.89902    0.01673     7.91545
      H    6    0.26009      0.00000     0.72107    0.01883     0.73991
      H    7    0.22880      0.00000     0.75499    0.01621     0.77120
      H    8    0.21549      0.00000     0.76573    0.01877     0.78451
      H    9    0.16927      0.00000     0.72688    0.10384     0.83073
      H   10    0.23626      0.00000     0.73128    0.03246     0.76374
      H   11    0.20793      0.00000     0.76237    0.02969     0.79207
      H   12    0.21255      0.00000     0.77550    0.01195     0.78745
      H   13    0.19446      0.00000     0.78130    0.02424     0.80554
      H   14    0.33226      0.00000     0.64498    0.02276     0.66774
      H   15    0.34458      0.00000     0.63326    0.02216     0.65542
 =======================================================================
   * Total *   -0.00000      9.99720    31.60455    0.39825    42.00000

 1\1\GINC-CN34\SP\RB3LYP TD-FC\6-31G(d,p)\C3H10N2\QDUEZ\11-Jul-2024\0\\
 # TD(NStates=10, Root=1) B3LYP/6-31G** SCRF=(Solvent=water) volume pop
 =NPA density=current Geom=AllCheck Guess=Read\\KFIGICHILYTCJF-UHFFFAOY
 SA-N_conf_2\\0,1\C,0,2.1451936239,0.1968140401,-0.028845377\N,0,0.7336
 46608,0.234706417,-0.4057303833\C,0,-0.1170941132,-0.5767227361,0.4667
 048738\C,0,-1.5934204883,-0.4117919638,0.0849987752\N,0,-2.1124136711,
 0.9601475217,0.1715178365\H,0,2.56680481,-0.821513366,0.03775745\H,0,2
 .2757524181,0.6710238605,0.9504357238\H,0,2.735997989,0.7616812742,-0.

 Normal termination of Gaussian 16 at Thu Jul 11 20:13:50 2024.
