 Gaussian 16, Revision A.03,

 -------------------------------------------------------
 # opt=CalcFc B3LYP/6-31G** SCRF=(Solvent=water) scf=xqc
 -------------------------------------------------------

 ----------------------------------
 KVKFRMCSXWQSNT-UHFFFAOYSA-N_conf_2
 ----------------------------------
 Symbolic Z-matrix:
 Charge =  0 Multiplicity = 1

 SCF Done:  E(RB3LYP) =  -269.151027378     A.U. after   11 cycles
 SCF Done:  E(RB3LYP) =  -269.153525617     A.U. after   10 cycles
 SCF Done:  E(RB3LYP) =  -269.153779312     A.U. after    9 cycles
 SCF Done:  E(RB3LYP) =  -269.153784834     A.U. after    8 cycles
 SCF Done:  E(RB3LYP) =  -269.153784895     A.U. after    6 cycles
 Optimization completed.
    -- Stationary point found.
 Normal termination of Gaussian 16 at Thu Jul 11 19:57:03 2024.

 ----------------------------------------------------------------------
 # freq B3LYP/6-31G** SCRF=(Solvent=water) volume NMR pop=NPA density=c
 urrent Geom=AllCheck Guess=Read
 ----------------------------------------------------------------------

 Structure from the checkpoint file:  "KVKFRMCSXWQSNT-UHFFFAOYSA-N_conf_2_1.chk"
 ----------------------------------
 KVKFRMCSXWQSNT-UHFFFAOYSA-N_conf_2
 ----------------------------------
 Charge =  0 Multiplicity = 1

 SCF Done:  E(RB3LYP) =  -269.153784895     A.U. after    1 cycles

      1  C    Isotropic =   154.9600   Anisotropy =    53.7212

      2  N    Isotropic =   228.8088   Anisotropy =    32.6941

      3  C    Isotropic =   142.9253   Anisotropy =    49.7706

      4  C    Isotropic =   140.0452   Anisotropy =    34.2837

      5  N    Isotropic =   233.8702   Anisotropy =    46.0527

      6  C    Isotropic =   157.5363   Anisotropy =    49.7559

      7  H    Isotropic =    29.2462   Anisotropy =     9.7595

      8  H    Isotropic =    29.5941   Anisotropy =     9.0222

      9  H    Isotropic =    29.5047   Anisotropy =     8.8294

     10  H    Isotropic =    30.6229   Anisotropy =    12.0337

     11  H    Isotropic =    29.0757   Anisotropy =     5.4898

     12  H    Isotropic =    29.6528   Anisotropy =     7.4166

     13  H    Isotropic =    28.8834   Anisotropy =     7.9469

     14  H    Isotropic =    29.1833   Anisotropy =     7.3627

     15  H    Isotropic =    31.2242   Anisotropy =    15.8242

     16  H    Isotropic =    29.3002   Anisotropy =     7.6760

     17  H    Isotropic =    29.7252   Anisotropy =     9.5094

     18  H    Isotropic =    29.4267   Anisotropy =     9.6188

  Exact polarizability:  80.615   0.242  71.780   0.045   1.083  69.465
 Approx polarizability:  79.292  -0.484  75.979  -0.211   1.067  77.557

                      1                      2                      3
                      A                      A                      A
 Frequencies --     68.7912               118.2951               149.4995
 Red. masses --      2.6702                 1.9951                 1.5721
 Frc consts  --      0.0074                 0.0164                 0.0207
 IR Inten    --      1.7234                 7.6240                 0.7157

                      4                      5                      6
                      A                      A                      A
 Frequencies --    229.4712               251.9863               269.4377
 Red. masses --      1.2517                 2.0920                 1.4188
 Frc consts  --      0.0388                 0.0783                 0.0607
 IR Inten    --      3.7061                 2.7291                 1.5555

                      7                      8                      9
                      A                      A                      A
 Frequencies --    343.6137               421.6534               539.1820
 Red. masses --      2.5576                 1.9553                 2.3219
 Frc consts  --      0.1779                 0.2048                 0.3977
 IR Inten    --      2.0478                 6.8785                16.5115

                     10                     11                     12
                      A                      A                      A
 Frequencies --    779.5086               812.6048               863.2426
 Red. masses --      1.5257                 1.7672                 1.6259
 Frc consts  --      0.5462                 0.6875                 0.7139
 IR Inten    --    112.0857               143.6683                22.2724

                     13                     14                     15
                      A                      A                      A
 Frequencies --    901.3675               995.6248              1021.9345
 Red. masses --      1.4600                 1.7736                 1.7543
 Frc consts  --      0.6989                 1.0359                 1.0795
 IR Inten    --     30.5374                11.0087                 5.9643

                     16                     17                     18
                      A                      A                      A
 Frequencies --   1057.9264              1130.6461              1136.7491
 Red. masses --      1.5717                 1.6399                 1.8442
 Frc consts  --      1.0364                 1.2351                 1.4040
 IR Inten    --     10.7664                41.0515                18.4571

                     19                     20                     21
                      A                      A                      A
 Frequencies --   1146.3902              1173.9300              1200.5132
 Red. masses --      1.6456                 2.5513                 1.7361
 Frc consts  --      1.2742                 2.0715                 1.4742
 IR Inten    --     21.2677                28.4221                 5.9241

                     22                     23                     24
                      A                      A                      A
 Frequencies --   1211.0278              1283.3761              1318.7919
 Red. masses --      1.7125                 1.3270                 1.2640
 Frc consts  --      1.4798                 1.2877                 1.2953
 IR Inten    --      6.4911                16.0654                10.9174

                     25                     26                     27
                      A                      A                      A
 Frequencies --   1386.8470              1403.9174              1461.7503
 Red. masses --      1.3049                 1.3513                 1.1850
 Frc consts  --      1.4787                 1.5692                 1.4918
 IR Inten    --     15.5682                18.9455                 7.7357

                     28                     29                     30
                      A                      A                      A
 Frequencies --   1464.0367              1479.3755              1489.3603
 Red. masses --      1.1698                 1.2104                 1.1782
 Frc consts  --      1.4773                 1.5608                 1.5398
 IR Inten    --     15.9878                29.6741                12.9397

                     31                     32                     33
                      A                      A                      A
 Frequencies --   1491.6832              1495.3538              1502.7411
 Red. masses --      1.1116                 1.0643                 1.0997
 Frc consts  --      1.4573                 1.4022                 1.4631
 IR Inten    --      4.7894                 2.0056                 9.6891

                     34                     35                     36
                      A                      A                      A
 Frequencies --   1519.5637              1522.9608              1526.9408
 Red. masses --      1.0503                 1.0618                 1.0845
 Frc consts  --      1.4289                 1.4510                 1.4898
 IR Inten    --     28.7876                11.2278                 3.7720

                     37                     38                     39
                      A                      A                      A
 Frequencies --   2924.0273              2945.1666              2954.4593
 Red. masses --      1.0728                 1.0597                 1.0717
 Frc consts  --      5.4042                 5.4156                 5.5117
 IR Inten    --    104.7054               163.4287               100.5923

                     40                     41                     42
                      A                      A                      A
 Frequencies --   2960.1132              3039.7095              3055.5046
 Red. masses --      1.0588                 1.0863                 1.0751
 Frc consts  --      5.4664                 5.9140                 5.9136
 IR Inten    --    163.4608                76.6161                75.7957

                     43                     44                     45
                      A                      A                      A
 Frequencies --   3076.4987              3079.8183              3105.7467
 Red. masses --      1.0756                 1.0901                 1.1013
 Frc consts  --      5.9981                 6.0922                 6.2586
 IR Inten    --     65.7716                48.4979                53.8270

                     46                     47                     48
                      A                      A                      A
 Frequencies --   3118.4842              3500.1223              3534.8072
 Red. masses --      1.1033                 1.0736                 1.0751
 Frc consts  --      6.3217                 7.7492                 7.9147
 IR Inten    --     45.8472                12.2067                 0.3909

 - Thermochemistry -
 -------------------
 Temperature   298.150 Kelvin.  Pressure   1.00000 Atm.
 Atom     1 has atomic number  6 and mass  12.00000

 Molecular mass:    88.10005 amu.
 Principal axes and moments of inertia in atomic units:
                           1         2         3
     Eigenvalues --   257.398011045.111001128.27908
           X            0.99999   0.00534  -0.00088
           Y           -0.00535   0.99994  -0.00924
           Z            0.00083   0.00924   0.99996
 This molecule is an asymmetric top.
 Rotational symmetry number  1.
 Rotational temperatures (Kelvin)      0.33650     0.08288     0.07677
 Rotational constants (GHZ):           7.01148     1.72684     1.59955
 Zero-point vibrational energy     439415.6 (Joules/Mol)
                                  105.02285 (Kcal/Mol)
 Warning -- explicit consideration of   9 degrees of freedom as
           vibrations may cause significant error
 Vibrational temperatures:     98.98   170.20   215.10   330.16   362.55
          (Kelvin)            387.66   494.38   606.67   775.76  1121.54
                             1169.16  1242.01  1296.87  1432.48  1470.34
                             1522.12  1626.75  1635.53  1649.40  1689.02
                             1727.27  1742.40  1846.49  1897.45  1995.36
                             2019.92  2103.13  2106.42  2128.49  2142.86
                             2146.20  2151.48  2162.11  2186.31  2191.20
                             2196.93  4207.02  4237.44  4250.81  4258.94
                             4373.46  4396.19  4426.40  4431.17  4468.48
                             4486.80  5035.90  5085.80

 Zero-point correction=                           0.167365 (Hartree/Particle)
 Thermal correction to Energy=                    0.175230
 Thermal correction to Enthalpy=                  0.176175
 Thermal correction to Gibbs Free Energy=         0.135376
 Sum of electronic and zero-point Energies=           -268.986420
 Sum of electronic and thermal Energies=              -268.978554
 Sum of electronic and thermal Enthalpies=            -268.977610
 Sum of electronic and thermal Free Energies=         -269.018409

                     E (Thermal)             CV                S
                      KCal/Mol        Cal/Mol-Kelvin    Cal/Mol-Kelvin
 Total                  109.959             27.295             85.868
 Electronic               0.000              0.000              0.000
 Translational            0.889              2.981             39.340
 Rotational               0.889              2.981             27.209
 Vibrational            108.181             21.334             19.319
 Vibration     1          0.598              1.969              4.188
 Vibration     2          0.608              1.934              3.128
 Vibration     3          0.618              1.903              2.679
 Vibration     4          0.652              1.796              1.883
 Vibration     5          0.664              1.759              1.717
 Vibration     6          0.674              1.729              1.600
 Vibration     7          0.722              1.588              1.195
 Vibration     8          0.784              1.423              0.886
 Vibration     9          0.894              1.163              0.567

 Optimization completed.
    -- Stationary point found.
 Normal termination of Gaussian 16 at Thu Jul 11 20:06:59 2024.
 Gaussian 16:  EM64L-G16RevA.03 25-Dec-2016

 ----------------------------------------------------------------------
 # TD(NStates=10, Root=1) B3LYP/6-31G** SCRF=(Solvent=water) volume pop
 =NPA density=current Geom=AllCheck Guess=Read
 ----------------------------------------------------------------------

 Structure from the checkpoint file:  "KVKFRMCSXWQSNT-UHFFFAOYSA-N_conf_2_2.chk"
 ----------------------------------
 KVKFRMCSXWQSNT-UHFFFAOYSA-N_conf_2
 ----------------------------------
 Charge =  0 Multiplicity = 1

                         Standard orientation:
 ---------------------------------------------------------------------
 Center     Atomic      Atomic             Coordinates (Angstroms)
 Number     Number       Type             X           Y           Z
 ---------------------------------------------------------------------
      1          6           0       -2.615664   -0.582704    0.027700
      2          7           0       -1.414319    0.065923   -0.486055
      3          6           0       -0.561056    0.608240    0.567817
      4          6           0        0.781362    1.057124   -0.013327
      5          7           0        1.506719   -0.061842   -0.627980
      6          6           0        2.242832   -0.887341    0.329473
      7          1           0       -3.170930   -1.040694   -0.796777
      8          1           0       -3.269671    0.163195    0.495146
      9          1           0       -2.419061   -1.364688    0.783840
     10          1           0       -0.849774   -0.613310   -0.993729
     11          1           0       -0.389713   -0.115657    1.388039
     12          1           0       -1.057389    1.474786    1.025224
     13          1           0        0.587403    1.798986   -0.795517
     14          1           0        1.368201    1.555968    0.778572
     15          1           0        2.165463    0.312614   -1.304581
     16          1           0        1.546368   -1.420193    0.984524
     17          1           0        2.931073   -0.312874    0.974076
     18          1           0        2.826385   -1.638619   -0.210550
 ---------------------------------------------------------------------

 SCF Done:  E(RB3LYP) =  -269.153784895     A.U. after    1 cycles

 Excitation energies and oscillator strengths:

 Excited State   1:      Singlet-A      6.9983 eV  177.16 nm  f=0.0136  <S**2>=0.000
      24 -> 26        -0.17091
      24 -> 27         0.11836
      25 -> 26         0.67004
 This state for optimization and/or second-order correction.
 Total Energy, E(TD-HF/TD-DFT) =  -268.896602881
 Copying the excited state density for this state as the 1-particle RhoCI density.

 Excited State   2:      Singlet-A      7.3095 eV  169.62 nm  f=0.0180  <S**2>=0.000
      24 -> 26         0.59907
      25 -> 26         0.13963
      25 -> 27         0.32847

 Excited State   3:      Singlet-A      7.7318 eV  160.36 nm  f=0.0251  <S**2>=0.000
      24 -> 26        -0.31484
      25 -> 26        -0.11484
      25 -> 27         0.61319

 Excited State   4:      Singlet-A      7.9921 eV  155.13 nm  f=0.0304  <S**2>=0.000
      24 -> 27         0.57011
      25 -> 26        -0.11252
      25 -> 28        -0.38233

 Excited State   5:      Singlet-A      8.2133 eV  150.96 nm  f=0.0936  <S**2>=0.000
      24 -> 27         0.35841
      25 -> 28         0.53433
      25 -> 29        -0.23115

 Excited State   6:      Singlet-A      8.5319 eV  145.32 nm  f=0.1268  <S**2>=0.000
      24 -> 27         0.13667
      24 -> 28        -0.34090
      24 -> 29         0.11367
      24 -> 31        -0.10035
      25 -> 28         0.22209
      25 -> 29         0.52114

 Excited State   7:      Singlet-A      8.6067 eV  144.05 nm  f=0.0657  <S**2>=0.000
      24 -> 28         0.57812
      25 -> 29         0.36257

 Excited State   8:      Singlet-A      8.9066 eV  139.20 nm  f=0.0374  <S**2>=0.000
      24 -> 29         0.42174
      24 -> 30        -0.15344
      25 -> 29        -0.10695
      25 -> 30         0.31298
      25 -> 31        -0.40258

 Excited State   9:      Singlet-A      8.9723 eV  138.19 nm  f=0.0424  <S**2>=0.000
      24 -> 29        -0.25062
      24 -> 30        -0.13802
      25 -> 29         0.11882
      25 -> 30         0.57995
      25 -> 31         0.21810

 Excited State  10:      Singlet-A      9.1347 eV  135.73 nm  f=0.0242  <S**2>=0.000
      24 -> 29         0.45736
      24 -> 31         0.11041
      25 -> 31         0.46934
      25 -> 32         0.16030

 The electronic state is 1-A.
 Alpha  occ. eigenvalues --  -14.31867 -14.30823 -10.20267 -10.19828 -10.19822
 Alpha  occ. eigenvalues --  -10.19535  -0.90620  -0.87914  -0.73131  -0.66885
 Alpha  occ. eigenvalues --   -0.63650  -0.57801  -0.49920  -0.46253  -0.45809
 Alpha  occ. eigenvalues --   -0.43743  -0.41231  -0.41105  -0.38454  -0.37028
 Alpha  occ. eigenvalues --   -0.34891  -0.34186  -0.33581  -0.22903  -0.21393
 Alpha virt. eigenvalues --    0.08319   0.10545   0.12553   0.13923   0.15291
 Alpha virt. eigenvalues --    0.15639   0.16553   0.17471   0.18220   0.18415
 Alpha virt. eigenvalues --    0.19719   0.21433   0.22291   0.22857   0.25476

 Mulliken charges:
               1
     1  C   -0.189733
     2  N   -0.331728
     3  C   -0.007668
     4  C   -0.048800
     5  N   -0.287647
     6  C   -0.146362
     7  H    0.113878
     8  H    0.112657
     9  H    0.115211
    10  H    0.187575
    11  H    0.061397
    12  H    0.049912
    13  H    0.051423
    14  H    0.099024
    15  H    0.048070
    16  H    0.044056
    17  H    0.087434
    18  H    0.041300
 Sum of Mulliken charges =  -0.00000

 Dipole moment (field-independent basis, Debye):
    X=             -1.6555    Y=             -0.0945    Z=              0.8890  Tot=              1.8815
 Quadrupole moment (field-independent basis, Debye-Ang):
   XX=            -40.6609   YY=            -42.0860   ZZ=            -42.7095
   XY=              2.7508   XZ=              1.1811   YZ=              0.8374

 Summary of Natural Population Analysis:

                                       Natural Population
                Natural  -----------------------------------------------
    Atom  No    Charge         Core      Valence    Rydberg      Total
 -----------------------------------------------------------------------
      C    1   -0.53773      1.99948     4.52014    0.01810     6.53773
      N    2   -0.44907      1.99945     5.43592    0.01369     7.44907
      C    3   -0.31209      1.99929     4.29323    0.01957     6.31209
      C    4   -0.31837      1.99933     4.29966    0.01938     6.31837
      N    5   -0.47406      1.99946     5.45839    0.01621     7.47406
      C    6   -0.54743      1.99948     4.52484    0.02311     6.54743
      H    7    0.23242      0.00000     0.76054    0.00704     0.76758
      H    8    0.22369      0.00000     0.76388    0.01242     0.77631
      H    9    0.22559      0.00000     0.76185    0.01256     0.77441
      H   10    0.34091      0.00000     0.62216    0.03693     0.65909
      H   11    0.20143      0.00000     0.76592    0.03265     0.79857
      H   12    0.18912      0.00000     0.78512    0.02576     0.81088
      H   13    0.19663      0.00000     0.77775    0.02562     0.80337
      H   14    0.22893      0.00000     0.75444    0.01663     0.77107
      H   15    0.22929      0.00000     0.69516    0.07555     0.77071
      H   16    0.17504      0.00000     0.79478    0.03019     0.82496
      H   17    0.21479      0.00000     0.76874    0.01647     0.78521
      H   18    0.18090      0.00000     0.79645    0.02266     0.81910
 =======================================================================
   * Total *   -0.00000     11.99649    37.57897    0.42454    50.00000

 1\1\GINC-CN13\SP\RB3LYP TD-FC\6-31G(d,p)\C4H12N2\QDUEZ\11-Jul-2024\0\\
 # TD(NStates=10, Root=1) B3LYP/6-31G** SCRF=(Solvent=water) volume pop
 =NPA density=current Geom=AllCheck Guess=Read\\KVKFRMCSXWQSNT-UHFFFAOY
 SA-N_conf_2\\0,1\C,0,2.6213784366,-0.0766744458,-0.4021170204\N,0,1.27
 59315988,-0.6373084012,-0.460031789\C,0,0.5468853226,-0.5078150631,0.7
 987511145\C,0,-0.9212446913,-0.8929356741,0.6048778294\N,0,-1.58475079
 41,-0.0224805631,-0.3739445138\C,0,-2.0345641135,1.2549780232,0.179043
 401\H,0,3.0865093905,-0.12653325,-1.3915633819\H,0,3.2398899065,-0.665

 Normal termination of Gaussian 16 at Thu Jul 11 20:20:38 2024.
