 Gaussian 16, Revision A.03,

 -------------------------------------------------------
 # opt=CalcFc B3LYP/6-31G** SCRF=(Solvent=water) scf=xqc
 -------------------------------------------------------

 ----------------------------------
 KVKFRMCSXWQSNT-UHFFFAOYSA-N_conf_0
 ----------------------------------
 Symbolic Z-matrix:
 Charge =  0 Multiplicity = 1

 SCF Done:  E(RB3LYP) =  -269.148767854     A.U. after   11 cycles
 SCF Done:  E(RB3LYP) =  -269.151248991     A.U. after    9 cycles
 SCF Done:  E(RB3LYP) =  -269.151399159     A.U. after    9 cycles
 SCF Done:  E(RB3LYP) =  -269.151401014     A.U. after    7 cycles
 SCF Done:  E(RB3LYP) =  -269.151401057     A.U. after    6 cycles
 Optimization completed.
    -- Stationary point found.
 Normal termination of Gaussian 16 at Thu Jul 11 19:54:42 2024.

 ----------------------------------------------------------------------
 # freq B3LYP/6-31G** SCRF=(Solvent=water) volume NMR pop=NPA density=c
 urrent Geom=AllCheck Guess=Read
 ----------------------------------------------------------------------

 Structure from the checkpoint file:  "KVKFRMCSXWQSNT-UHFFFAOYSA-N_conf_0_1.chk"
 ----------------------------------
 KVKFRMCSXWQSNT-UHFFFAOYSA-N_conf_0
 ----------------------------------
 Charge =  0 Multiplicity = 1

 SCF Done:  E(RB3LYP) =  -269.151401057     A.U. after    1 cycles

      1  C    Isotropic =   154.3766   Anisotropy =    54.4947

      2  N    Isotropic =   226.4597   Anisotropy =    45.3859

      3  C    Isotropic =   139.6002   Anisotropy =    50.6230

      4  C    Isotropic =   138.7804   Anisotropy =    48.9588

      5  N    Isotropic =   230.5516   Anisotropy =    50.5764

      6  C    Isotropic =   155.6997   Anisotropy =    51.5571

      7  H    Isotropic =    29.3704   Anisotropy =     8.9877

      8  H    Isotropic =    29.6067   Anisotropy =     8.3740

      9  H    Isotropic =    29.2242   Anisotropy =     9.7355

     10  H    Isotropic =    31.7678   Anisotropy =    12.3349

     11  H    Isotropic =    29.1653   Anisotropy =     5.6644

     12  H    Isotropic =    29.3500   Anisotropy =     5.1084

     13  H    Isotropic =    29.1915   Anisotropy =     4.8331

     14  H    Isotropic =    29.1238   Anisotropy =     5.6666

     15  H    Isotropic =    31.1436   Anisotropy =    15.3661

     16  H    Isotropic =    29.3626   Anisotropy =     9.4515

     17  H    Isotropic =    29.4125   Anisotropy =     7.6619

     18  H    Isotropic =    29.6027   Anisotropy =     8.8525

  Exact polarizability:  83.143  -1.088  71.420   0.117   0.277  65.426
 Approx polarizability:  80.618  -1.121  77.477   1.363   0.491  72.531

                      1                      2                      3
                      A                      A                      A
 Frequencies --     75.2117                95.1038               140.7344
 Red. masses --      1.8231                 2.4585                 2.1616
 Frc consts  --      0.0061                 0.0131                 0.0252
 IR Inten    --      7.7331                 1.7963                 0.4953

                      4                      5                      6
                      A                      A                      A
 Frequencies --    172.1056               250.1647               259.4386
 Red. masses --      1.5999                 1.3268                 1.3499
 Frc consts  --      0.0279                 0.0489                 0.0535
 IR Inten    --      2.2453                 4.1375                 3.5467

                      7                      8                      9
                      A                      A                      A
 Frequencies --    355.2464               424.1797               470.2794
 Red. masses --      2.5403                 2.7398                 2.9138
 Frc consts  --      0.1889                 0.2904                 0.3797
 IR Inten    --      2.2031                 5.9966                15.1427

                     10                     11                     12
                      A                      A                      A
 Frequencies --    784.5048               810.6638               825.6766
 Red. masses --      1.3815                 1.1573                 1.2701
 Frc consts  --      0.5009                 0.4481                 0.5102
 IR Inten    --    240.0465                28.4797                58.9635

                     13                     14                     15
                      A                      A                      A
 Frequencies --    935.8970               990.1210              1032.7249
 Red. masses --      2.6474                 1.8872                 2.0578
 Frc consts  --      1.3662                 1.0901                 1.2931
 IR Inten    --      5.3073                10.1919                12.3912

                     16                     17                     18
                      A                      A                      A
 Frequencies --   1081.9392              1118.0047              1138.6576
 Red. masses --      1.5259                 1.4614                 2.3372
 Frc consts  --      1.0524                 1.0763                 1.7854
 IR Inten    --      9.4845                 4.1042                24.0680

                     19                     20                     21
                      A                      A                      A
 Frequencies --   1154.3626              1172.2157              1184.0737
 Red. masses --      1.5352                 2.7523                 1.8169
 Frc consts  --      1.2053                 2.2282                 1.5009
 IR Inten    --     25.7523                52.5675                12.2949

                     22                     23                     24
                      A                      A                      A
 Frequencies --   1243.8307              1279.1561              1329.0999
 Red. masses --      1.8648                 1.3143                 1.1027
 Frc consts  --      1.6998                 1.2670                 1.1477
 IR Inten    --      2.2533                27.5009                 1.3874

                     25                     26                     27
                      A                      A                      A
 Frequencies --   1349.3729              1421.9325              1464.3496
 Red. masses --      1.3294                 1.3874                 1.1685
 Frc consts  --      1.4261                 1.6528                 1.4763
 IR Inten    --     10.7670                 8.0074                 5.0702

                     28                     29                     30
                      A                      A                      A
 Frequencies --   1466.0799              1489.6711              1493.0421
 Red. masses --      1.1811                 1.1711                 1.1582
 Frc consts  --      1.4957                 1.5311                 1.5212
 IR Inten    --      0.3994                13.7396                 7.2080

                     31                     32                     33
                      A                      A                      A
 Frequencies --   1495.9072              1496.2488              1508.0662
 Red. masses --      1.0909                 1.1016                 1.1005
 Frc consts  --      1.4382                 1.4531                 1.4747
 IR Inten    --      3.6659                 5.6095                 2.3166

                     34                     35                     36
                      A                      A                      A
 Frequencies --   1522.5535              1524.3966              1530.6587
 Red. masses --      1.0561                 1.0660                 1.0865
 Frc consts  --      1.4425                 1.4595                 1.4998
 IR Inten    --     24.1102                 6.0034                 0.9850

                     37                     38                     39
                      A                      A                      A
 Frequencies --   2941.0401              2950.1606              2955.1196
 Red. masses --      1.0715                 1.0705                 1.0588
 Frc consts  --      5.4604                 5.4894                 5.4477
 IR Inten    --     19.2917               205.9037               278.9879

                     40                     41                     42
                      A                      A                      A
 Frequencies --   2955.7665              3043.0696              3060.9254
 Red. masses --      1.0591                 1.0862                 1.0906
 Frc consts  --      5.4515                 5.9265                 6.0205
 IR Inten    --     23.8525                 3.4797               137.5544

                     43                     44                     45
                      A                      A                      A
 Frequencies --   3062.6715              3074.6838              3111.1486
 Red. masses --      1.0775                 1.0746                 1.1021
 Frc consts  --      5.9551                 5.9855                 6.2852
 IR Inten    --     35.6306                67.6048                52.7238

                     46                     47                     48
                      A                      A                      A
 Frequencies --   3116.4768              3497.0146              3528.7520
 Red. masses --      1.1031                 1.0740                 1.0749
 Frc consts  --      6.3122                 7.7384                 7.8858
 IR Inten    --     48.7466                 0.8719                 0.2205

 - Thermochemistry -
 -------------------
 Temperature   298.150 Kelvin.  Pressure   1.00000 Atm.
 Atom     1 has atomic number  6 and mass  12.00000

 Molecular mass:    88.10005 amu.
 Principal axes and moments of inertia in atomic units:
                           1         2         3
     Eigenvalues --   176.208811295.966111378.47227
           X            0.99992  -0.00107  -0.01291
           Y            0.00106   1.00000  -0.00051
           Z            0.01291   0.00049   0.99992
 This molecule is an asymmetric top.
 Rotational symmetry number  1.
 Rotational temperatures (Kelvin)      0.49154     0.06683     0.06283
 Rotational constants (GHZ):          10.24206     1.39258     1.30923
 Zero-point vibrational energy     438924.8 (Joules/Mol)
                                  104.90555 (Kcal/Mol)
 Warning -- explicit consideration of   9 degrees of freedom as
           vibrations may cause significant error
 Vibrational temperatures:    108.21   136.83   202.49   247.62   359.93
          (Kelvin)            373.27   511.12   610.30   676.63  1128.73
                             1166.36  1187.96  1346.55  1424.56  1485.86
                             1556.67  1608.56  1638.27  1660.87  1686.56
                             1703.62  1789.59  1840.42  1912.28  1941.45
                             2045.84  2106.87  2109.36  2143.30  2148.15
                             2152.28  2152.77  2169.77  2190.61  2193.27
                             2202.28  4231.50  4244.62  4251.76  4252.69
                             4378.30  4403.99  4406.50  4423.78  4476.25
                             4483.92  5031.42  5077.09

 Zero-point correction=                           0.167178 (Hartree/Particle)
 Thermal correction to Energy=                    0.175229
 Thermal correction to Enthalpy=                  0.176173
 Thermal correction to Gibbs Free Energy=         0.134846
 Sum of electronic and zero-point Energies=           -268.984223
 Sum of electronic and thermal Energies=              -268.976172
 Sum of electronic and thermal Enthalpies=            -268.975228
 Sum of electronic and thermal Free Energies=         -269.016555

                     E (Thermal)             CV                S
                      KCal/Mol        Cal/Mol-Kelvin    Cal/Mol-Kelvin
 Total                  109.958             27.515             86.980
 Electronic               0.000              0.000              0.000
 Translational            0.889              2.981             39.340
 Rotational               0.889              2.981             27.245
 Vibrational            108.180             21.553             20.394
 Vibration     1          0.599              1.966              4.012
 Vibration     2          0.603              1.953              3.552
 Vibration     3          0.615              1.913              2.794
 Vibration     4          0.626              1.877              2.412
 Vibration     5          0.663              1.762              1.729
 Vibration     6          0.668              1.747              1.666
 Vibration     7          0.731              1.564              1.143
 Vibration     8          0.786              1.418              0.878
 Vibration     9          0.827              1.316              0.737

 Optimization completed.
    -- Stationary point found.
 Normal termination of Gaussian 16 at Thu Jul 11 20:04:45 2024.
 Gaussian 16:  EM64L-G16RevA.03 25-Dec-2016

 ----------------------------------------------------------------------
 # TD(NStates=10, Root=1) B3LYP/6-31G** SCRF=(Solvent=water) volume pop
 =NPA density=current Geom=AllCheck Guess=Read
 ----------------------------------------------------------------------

 Structure from the checkpoint file:  "KVKFRMCSXWQSNT-UHFFFAOYSA-N_conf_0_2.chk"
 ----------------------------------
 KVKFRMCSXWQSNT-UHFFFAOYSA-N_conf_0
 ----------------------------------
 Charge =  0 Multiplicity = 1

                         Standard orientation:
 ---------------------------------------------------------------------
 Center     Atomic      Atomic             Coordinates (Angstroms)
 Number     Number       Type             X           Y           Z
 ---------------------------------------------------------------------
      1          6           0        2.892346    0.465865   -0.060118
      2          7           0        1.745383   -0.341734    0.350342
      3          6           0        0.495830    0.095030   -0.271601
      4          6           0       -0.673794   -0.778466    0.192023
      5          7           0       -1.941359   -0.379029   -0.425741
      6          6           0       -2.557940    0.791527    0.199469
      7          1           0        3.030232    0.531999   -1.153964
      8          1           0        2.774995    1.488026    0.317764
      9          1           0        3.808084    0.052283    0.372926
     10          1           0        1.919319   -1.307398    0.076653
     11          1           0        0.324701    1.138456    0.023261
     12          1           0        0.531760    0.084167   -1.376604
     13          1           0       -0.711120   -0.759799    1.296464
     14          1           0       -0.471954   -1.816158   -0.101960
     15          1           0       -2.590027   -1.157347   -0.346940
     16          1           0       -3.551447    0.951031   -0.229798
     17          1           0       -1.965349    1.689226   -0.004156
     18          1           0       -2.666019    0.707107    1.295509
 ---------------------------------------------------------------------

 SCF Done:  E(RB3LYP) =  -269.151401057     A.U. after    1 cycles

 Excitation energies and oscillator strengths:

 Excited State   1:      Singlet-A      7.1555 eV  173.27 nm  f=0.0138  <S**2>=0.000
      24 -> 26         0.43781
      24 -> 27        -0.11969
      25 -> 26         0.53207
 This state for optimization and/or second-order correction.
 Total Energy, E(TD-HF/TD-DFT) =  -268.888440152
 Copying the excited state density for this state as the 1-particle RhoCI density.

 Excited State   2:      Singlet-A      7.2103 eV  171.95 nm  f=0.0146  <S**2>=0.000
      24 -> 26        -0.13259
      24 -> 27        -0.37273
      25 -> 27         0.57406

 Excited State   3:      Singlet-A      7.6709 eV  161.63 nm  f=0.0002  <S**2>=0.000
      24 -> 26         0.52459
      25 -> 26        -0.43796
      25 -> 27         0.13261

 Excited State   4:      Singlet-A      7.7244 eV  160.51 nm  f=0.0130  <S**2>=0.000
      24 -> 27         0.57235
      25 -> 26         0.10527
      25 -> 27         0.37610

 Excited State   5:      Singlet-A      8.0065 eV  154.85 nm  f=0.0358  <S**2>=0.000
      25 -> 28         0.68585

 Excited State   6:      Singlet-A      8.1414 eV  152.29 nm  f=0.0333  <S**2>=0.000
      24 -> 28         0.67857
      25 -> 29         0.13140

 Excited State   7:      Singlet-A      8.6806 eV  142.83 nm  f=0.0564  <S**2>=0.000
      24 -> 28        -0.10518
      24 -> 29        -0.33164
      25 -> 29         0.59874

 Excited State   8:      Singlet-A      8.9512 eV  138.51 nm  f=0.1462  <S**2>=0.000
      24 -> 29         0.53781
      24 -> 30         0.14049
      25 -> 29         0.30019
      25 -> 30         0.25348

 Excited State   9:      Singlet-A      9.0708 eV  136.69 nm  f=0.0338  <S**2>=0.000
      24 -> 29        -0.19869
      24 -> 30        -0.15004
      24 -> 31         0.14298
      25 -> 30         0.60971
      25 -> 32         0.12038

 Excited State  10:      Singlet-A      9.1402 eV  135.65 nm  f=0.0966  <S**2>=0.000
      24 -> 30         0.44046
      24 -> 31         0.19642
      24 -> 32         0.12249
      25 -> 31         0.45770

 The electronic state is 1-A.
 Alpha  occ. eigenvalues --  -14.31629 -14.31554 -10.20171 -10.19906 -10.19757
 Alpha  occ. eigenvalues --  -10.19736  -0.90354  -0.88532  -0.73068  -0.67049
 Alpha  occ. eigenvalues --   -0.63244  -0.58473  -0.48871  -0.48348  -0.44911
 Alpha  occ. eigenvalues --   -0.42772  -0.42598  -0.40173  -0.39060  -0.36795
 Alpha  occ. eigenvalues --   -0.36108  -0.33900  -0.33044  -0.22507  -0.21966
 Alpha virt. eigenvalues --    0.08884   0.09163   0.11404   0.13722   0.15053
 Alpha virt. eigenvalues --    0.15727   0.16782   0.17045   0.18478   0.18960
 Alpha virt. eigenvalues --    0.19171   0.20894   0.22662   0.24358   0.25649

 Mulliken charges:
               1
     1  C   -0.176803
     2  N   -0.523862
     3  C   -0.023691
     4  C   -0.054321
     5  N   -0.074683
     6  C   -0.175621
     7  H    0.093688
     8  H    0.116456
     9  H    0.114252
    10  H    0.254801
    11  H    0.101031
    12  H    0.084002
    13  H    0.115615
    14  H   -0.007054
    15  H   -0.117393
    16  H    0.024020
    17  H    0.120965
    18  H    0.128598
 Sum of Mulliken charges =   0.00000

 Dipole moment (field-independent basis, Debye):
    X=              1.7338    Y=              1.4070    Z=             -0.5035  Tot=              2.2889
 Quadrupole moment (field-independent basis, Debye-Ang):
   XX=            -43.8441   YY=            -41.8857   ZZ=            -42.3896
   XY=             -5.0281   XZ=             -3.4143   YZ=              0.3130

 Summary of Natural Population Analysis:

                                       Natural Population
                Natural  -----------------------------------------------
    Atom  No    Charge         Core      Valence    Rydberg      Total
 -----------------------------------------------------------------------
      C    1   -0.48663      1.99951     4.47572    0.01140     6.48663
      N    2   -0.70140      1.99957     5.68633    0.01550     7.70140
      C    3   -0.28605      1.99934     4.26631    0.02041     6.28605
      C    4   -0.35854      1.99931     4.33478    0.02445     6.35854
      N    5   -0.21311      1.99934     5.19533    0.01844     7.21311
      C    6   -0.58430      1.99945     4.56155    0.02329     6.58430
      H    7    0.20180      0.00000     0.79524    0.00296     0.79820
      H    8    0.22370      0.00000     0.77460    0.00169     0.77630
      H    9    0.23484      0.00000     0.76383    0.00133     0.76516
      H   10    0.38943      0.00000     0.60587    0.00470     0.61057
      H   11    0.22499      0.00000     0.76573    0.00928     0.77501
      H   12    0.20549      0.00000     0.78810    0.00640     0.79451
      H   13    0.25110      0.00000     0.72727    0.02162     0.74890
      H   14    0.14702      0.00000     0.81220    0.04079     0.85298
      H   15    0.10036      0.00000     0.79052    0.10912     0.89964
      H   16    0.16522      0.00000     0.80094    0.03384     0.83478
      H   17    0.23389      0.00000     0.75247    0.01364     0.76611
      H   18    0.25218      0.00000     0.72676    0.02106     0.74782
 =======================================================================
   * Total *    0.00000     11.99652    37.62356    0.37992    50.00000

 1\1\GINC-CN33\SP\RB3LYP TD-FC\6-31G(d,p)\C4H12N2\QDUEZ\11-Jul-2024\0\\
 # TD(NStates=10, Root=1) B3LYP/6-31G** SCRF=(Solvent=water) volume pop
 =NPA density=current Geom=AllCheck Guess=Read\\KVKFRMCSXWQSNT-UHFFFAOY
 SA-N_conf_0\\0,1\C,0,-2.8639423531,-0.1145817556,-0.1286205257\N,0,-1.
 6390931604,-0.7595863341,0.3403496833\C,0,-0.5092330884,0.1655190659,0
 .4213070582\C,0,0.7482156055,-0.5575499639,0.9131964914\N,0,1.89796484
 92,0.3446624595,1.0227115491\C,0,2.5504733584,0.6248475853,-0.25673778
 51\H,0,-3.1588218822,0.7747490355,0.4562044578\H,0,-2.7345387632,0.205

 Normal termination of Gaussian 16 at Thu Jul 11 20:19:35 2024.
