 Gaussian 16, Revision A.03,

 -------------------------------------------------------
 # opt=CalcFc B3LYP/6-31G** SCRF=(Solvent=water) scf=xqc
 -------------------------------------------------------

 ----------------------------------
 KVKFRMCSXWQSNT-UHFFFAOYSA-N_conf_1
 ----------------------------------
 Symbolic Z-matrix:
 Charge =  0 Multiplicity = 1

 SCF Done:  E(RB3LYP) =  -269.152342403     A.U. after   11 cycles
 SCF Done:  E(RB3LYP) =  -269.154787166     A.U. after    9 cycles
 SCF Done:  E(RB3LYP) =  -269.154930033     A.U. after    9 cycles
 SCF Done:  E(RB3LYP) =  -269.154930477     A.U. after    6 cycles
 Optimization completed.
    -- Stationary point found.
 Normal termination of Gaussian 16 at Thu Jul 11 19:54:31 2024.

 ----------------------------------------------------------------------
 # freq B3LYP/6-31G** SCRF=(Solvent=water) volume NMR pop=NPA density=c
 urrent Geom=AllCheck Guess=Read
 ----------------------------------------------------------------------

 Structure from the checkpoint file:  "KVKFRMCSXWQSNT-UHFFFAOYSA-N_conf_1_1.chk"
 ----------------------------------
 KVKFRMCSXWQSNT-UHFFFAOYSA-N_conf_1
 ----------------------------------
 Charge =  0 Multiplicity = 1

 SCF Done:  E(RB3LYP) =  -269.154930477     A.U. after    1 cycles

      1  C    Isotropic =   154.7531   Anisotropy =    54.0921

      2  N    Isotropic =   225.1790   Anisotropy =    59.8330

      3  C    Isotropic =   139.1254   Anisotropy =    36.5393

      4  C    Isotropic =   138.6360   Anisotropy =    39.5484

      5  N    Isotropic =   227.3263   Anisotropy =    34.7306

      6  C    Isotropic =   155.0105   Anisotropy =    53.7302

      7  H    Isotropic =    29.2051   Anisotropy =     9.7113

      8  H    Isotropic =    29.3896   Anisotropy =     9.2751

      9  H    Isotropic =    29.6407   Anisotropy =     8.6115

     10  H    Isotropic =    31.8653   Anisotropy =    12.2125

     11  H    Isotropic =    29.3521   Anisotropy =     5.9349

     12  H    Isotropic =    28.9905   Anisotropy =     7.2496

     13  H    Isotropic =    29.3246   Anisotropy =     6.8515

     14  H    Isotropic =    29.3542   Anisotropy =     6.2125

     15  H    Isotropic =    30.5954   Anisotropy =    12.3091

     16  H    Isotropic =    29.5329   Anisotropy =     8.9769

     17  H    Isotropic =    29.6234   Anisotropy =     8.8911

     18  H    Isotropic =    29.2693   Anisotropy =     9.6948

  Exact polarizability:  84.231  -0.283  71.835   0.660  -0.134  67.728
 Approx polarizability:  80.892   0.133  77.308   0.421  -0.014  75.166

                      1                      2                      3
                      A                      A                      A
 Frequencies --     89.6519                97.1737               153.7239
 Red. masses --      2.8841                 2.1884                 1.5663
 Frc consts  --      0.0137                 0.0122                 0.0218
 IR Inten    --      4.9584                 2.3298                 0.9354

                      4                      5                      6
                      A                      A                      A
 Frequencies --    246.3244               249.8830               275.0041
 Red. masses --      1.4132                 1.4953                 1.4925
 Frc consts  --      0.0505                 0.0550                 0.0665
 IR Inten    --      2.5026                 0.6190                 4.3725

                      7                      8                      9
                      A                      A                      A
 Frequencies --    313.7286               356.5792               561.3408
 Red. masses --      2.2380                 2.7813                 2.5775
 Frc consts  --      0.1298                 0.2084                 0.4785
 IR Inten    --      5.3255                 0.9464                 0.8101

                     10                     11                     12
                      A                      A                      A
 Frequencies --    784.2661               816.7261               894.4929
 Red. masses --      1.4979                 1.6677                 1.2670
 Frc consts  --      0.5428                 0.6554                 0.5973
 IR Inten    --    142.3053               122.1421                33.7938

                     13                     14                     15
                      A                      A                      A
 Frequencies --    909.1361              1012.9797              1031.5417
 Red. masses --      1.4555                 1.5914                 1.9274
 Frc consts  --      0.7088                 0.9621                 1.2083
 IR Inten    --     26.5147                 2.6764                 9.9221

                     16                     17                     18
                      A                      A                      A
 Frequencies --   1054.7896              1130.9458              1136.6433
 Red. masses --      1.6614                 2.7604                 1.2652
 Frc consts  --      1.0891                 2.0802                 0.9630
 IR Inten    --     14.7310                50.0887                 9.0529

                     19                     20                     21
                      A                      A                      A
 Frequencies --   1146.7447              1166.3851              1200.3979
 Red. masses --      1.7837                 2.5666                 1.7366
 Frc consts  --      1.3820                 2.0573                 1.4743
 IR Inten    --     37.6985                33.1517                 9.5725

                     22                     23                     24
                      A                      A                      A
 Frequencies --   1224.8931              1289.9260              1308.5907
 Red. masses --      1.7629                 1.3879                 1.2606
 Frc consts  --      1.5584                 1.3606                 1.2719
 IR Inten    --      7.3771                 6.6999                11.8229

                     25                     26                     27
                      A                      A                      A
 Frequencies --   1384.1725              1405.3749              1462.9908
 Red. masses --      1.2937                 1.4180                 1.1723
 Frc consts  --      1.4604                 1.6501                 1.4784
 IR Inten    --     21.1065                 4.4602                25.4106

                     28                     29                     30
                      A                      A                      A
 Frequencies --   1465.1873              1481.5100              1485.1828
 Red. masses --      1.1761                 1.2330                 1.2262
 Frc consts  --      1.4876                 1.5945                 1.5935
 IR Inten    --      1.0105                49.1989                 9.5676

                     31                     32                     33
                      A                      A                      A
 Frequencies --   1494.7213              1495.8230              1512.4891
 Red. masses --      1.0544                 1.0657                 1.0909
 Frc consts  --      1.3880                 1.4049                 1.4704
 IR Inten    --      9.9529                 7.0713                17.5235

                     34                     35                     36
                      A                      A                      A
 Frequencies --   1518.8773              1522.1337              1528.2022
 Red. masses --      1.0523                 1.0515                 1.0899
 Frc consts  --      1.4303                 1.4353                 1.4997
 IR Inten    --     17.9531                 9.2541                 6.3764

                     37                     38                     39
                      A                      A                      A
 Frequencies --   2903.6530              2946.3689              2949.7744
 Red. masses --      1.0735                 1.0605                 1.0707
 Frc consts  --      5.3328                 5.4240                 5.4892
 IR Inten    --    130.0201               167.9713               105.5918

                     40                     41                     42
                      A                      A                      A
 Frequencies --   2959.6425              3043.7772              3056.4827
 Red. masses --      1.0584                 1.0859                 1.0778
 Frc consts  --      5.4626                 5.9275                 5.9322
 IR Inten    --    158.9567                70.5266               112.1092

                     43                     44                     45
                      A                      A                      A
 Frequencies --   3056.9499              3066.3172              3107.1860
 Red. masses --      1.0868                 1.0763                 1.1013
 Frc consts  --      5.9839                 5.9623                 6.2645
 IR Inten    --     32.5743                56.7501                52.6450

                     46                     47                     48
                      A                      A                      A
 Frequencies --   3114.2309              3498.2751              3506.6233
 Red. masses --      1.1025                 1.0740                 1.0738
 Frc consts  --      6.2997                 7.7438                 7.7792
 IR Inten    --     48.6781                 0.2914                10.1259

 - Thermochemistry -
 -------------------
 Temperature   298.150 Kelvin.  Pressure   1.00000 Atm.
 Atom     1 has atomic number  6 and mass  12.00000

 Molecular mass:    88.10005 amu.
 Principal axes and moments of inertia in atomic units:
                           1         2         3
     Eigenvalues --   186.769111207.550701299.78278
           X            0.99996  -0.00201   0.00880
           Y            0.00207   0.99998  -0.00621
           Z           -0.00878   0.00622   0.99994
 This molecule is an asymmetric top.
 Rotational symmetry number  1.
 Rotational temperatures (Kelvin)      0.46375     0.07173     0.06664
 Rotational constants (GHZ):           9.66295     1.49455     1.38849
 Zero-point vibrational energy     439136.0 (Joules/Mol)
                                  104.95603 (Kcal/Mol)
 Warning -- explicit consideration of   9 degrees of freedom as
           vibrations may cause significant error
 Vibrational temperatures:    128.99   139.81   221.17   354.41   359.53
          (Kelvin)            395.67   451.39   513.04   807.64  1128.38
                             1175.09  1286.98  1308.04  1457.45  1484.16
                             1517.61  1627.18  1635.38  1649.91  1678.17
                             1727.10  1762.35  1855.92  1882.77  1991.52
                             2022.02  2104.92  2108.08  2131.56  2136.85
                             2150.57  2152.16  2176.13  2185.33  2190.01
                             2198.74  4177.71  4239.17  4244.07  4258.27
                             4379.32  4397.60  4398.27  4411.75  4470.55
                             4480.68  5033.24  5045.25

 Zero-point correction=                           0.167258 (Hartree/Particle)
 Thermal correction to Energy=                    0.175157
 Thermal correction to Enthalpy=                  0.176102
 Thermal correction to Gibbs Free Energy=         0.135332
 Sum of electronic and zero-point Energies=           -268.987672
 Sum of electronic and thermal Energies=              -268.979773
 Sum of electronic and thermal Enthalpies=            -268.978829
 Sum of electronic and thermal Free Energies=         -269.019599

                     E (Thermal)             CV                S
                      KCal/Mol        Cal/Mol-Kelvin    Cal/Mol-Kelvin
 Total                  109.913             27.310             85.807
 Electronic               0.000              0.000              0.000
 Translational            0.889              2.981             39.340
 Rotational               0.889              2.981             27.174
 Vibrational            108.135             21.349             19.293
 Vibration     1          0.602              1.956              3.668
 Vibration     2          0.603              1.951              3.510
 Vibration     3          0.619              1.899              2.626
 Vibration     4          0.661              1.769              1.757
 Vibration     5          0.663              1.763              1.731
 Vibration     6          0.677              1.720              1.565
 Vibration     7          0.702              1.647              1.343
 Vibration     8          0.732              1.562              1.137
 Vibration     9          0.917              1.115              0.521

 Optimization completed.
    -- Stationary point found.
 Normal termination of Gaussian 16 at Thu Jul 11 20:04:47 2024.
 Gaussian 16:  EM64L-G16RevA.03 25-Dec-2016

 ----------------------------------------------------------------------
 # TD(NStates=10, Root=1) B3LYP/6-31G** SCRF=(Solvent=water) volume pop
 =NPA density=current Geom=AllCheck Guess=Read
 ----------------------------------------------------------------------

 Structure from the checkpoint file:  "KVKFRMCSXWQSNT-UHFFFAOYSA-N_conf_1_2.chk"
 ----------------------------------
 KVKFRMCSXWQSNT-UHFFFAOYSA-N_conf_1
 ----------------------------------
 Charge =  0 Multiplicity = 1

                         Standard orientation:
 ---------------------------------------------------------------------
 Center     Atomic      Atomic             Coordinates (Angstroms)
 Number     Number       Type             X           Y           Z
 ---------------------------------------------------------------------
      1          6           0       -2.793787   -0.473402   -0.100272
      2          7           0       -1.393043   -0.380140    0.306464
      3          6           0       -0.731770    0.829126   -0.190365
      4          6           0        0.747381    0.827499    0.187820
      5          7           0        1.437066   -0.303776   -0.427000
      6          6           0        2.797541   -0.480345    0.069335
      7          1           0       -3.251639   -1.355903    0.356176
      8          1           0       -3.400783    0.407620    0.172556
      9          1           0       -2.852440   -0.589131   -1.188315
     10          1           0       -1.351137   -0.370967    1.324349
     11          1           0       -0.821085    0.835323   -1.284019
     12          1           0       -1.203458    1.758566    0.176807
     13          1           0        1.210047    1.761376   -0.157767
     14          1           0        0.836254    0.829254    1.293405
     15          1           0        0.886036   -1.133552   -0.215534
     16          1           0        2.870409   -0.562083    1.169178
     17          1           0        3.416648    0.372139   -0.234729
     18          1           0        3.236794   -1.382490   -0.367458
 ---------------------------------------------------------------------

 SCF Done:  E(RB3LYP) =  -269.154930477     A.U. after    1 cycles

 Excitation energies and oscillator strengths:

 Excited State   1:      Singlet-A      7.1243 eV  174.03 nm  f=0.0135  <S**2>=0.000
      24 -> 26         0.20091
      24 -> 27        -0.12295
      25 -> 26         0.65844
 This state for optimization and/or second-order correction.
 Total Energy, E(TD-HF/TD-DFT) =  -268.893116390
 Copying the excited state density for this state as the 1-particle RhoCI density.

 Excited State   2:      Singlet-A      7.3951 eV  167.66 nm  f=0.0257  <S**2>=0.000
      24 -> 26         0.57882
      25 -> 26        -0.13614
      25 -> 27        -0.37034

 Excited State   3:      Singlet-A      7.8082 eV  158.79 nm  f=0.0580  <S**2>=0.000
      24 -> 26         0.32529
      25 -> 26        -0.18474
      25 -> 27         0.56914
      25 -> 28        -0.10153

 Excited State   4:      Singlet-A      8.1438 eV  152.24 nm  f=0.0350  <S**2>=0.000
      24 -> 27         0.62251
      25 -> 27         0.13381
      25 -> 29        -0.25589

 Excited State   5:      Singlet-A      8.3071 eV  149.25 nm  f=0.0471  <S**2>=0.000
      24 -> 27        -0.14507
      24 -> 29         0.12287
      25 -> 28         0.60242
      25 -> 29        -0.21825
      25 -> 30         0.17214

 Excited State   6:      Singlet-A      8.3705 eV  148.12 nm  f=0.0090  <S**2>=0.000
      24 -> 27         0.21171
      24 -> 28         0.23736
      24 -> 29         0.15729
      25 -> 28         0.24427
      25 -> 29         0.52156
      25 -> 30        -0.16862

 Excited State   7:      Singlet-A      8.6987 eV  142.53 nm  f=0.0996  <S**2>=0.000
      24 -> 28         0.59930
      25 -> 29        -0.27598
      25 -> 30        -0.18377
      25 -> 31        -0.13728

 Excited State   8:      Singlet-A      8.7252 eV  142.10 nm  f=0.1306  <S**2>=0.000
      24 -> 29         0.62302
      24 -> 30        -0.11019
      25 -> 28        -0.21746
      25 -> 30         0.17166

 Excited State   9:      Singlet-A      8.8884 eV  139.49 nm  f=0.0249  <S**2>=0.000
      24 -> 27         0.10690
      24 -> 28         0.23638
      24 -> 29        -0.19080
      25 -> 29         0.12315
      25 -> 30         0.58800

 Excited State  10:      Singlet-A      9.1573 eV  135.39 nm  f=0.1615  <S**2>=0.000
      24 -> 30         0.53084
      25 -> 31        -0.39400

 The electronic state is 1-A.
 Alpha  occ. eigenvalues --  -14.31866 -14.30974 -10.20266 -10.20105 -10.19888
 Alpha  occ. eigenvalues --  -10.19594  -0.90793  -0.88061  -0.73429  -0.66262
 Alpha  occ. eigenvalues --   -0.63549  -0.59113  -0.48925  -0.47005  -0.45245
 Alpha  occ. eigenvalues --   -0.43983  -0.41884  -0.40713  -0.38037  -0.37274
 Alpha  occ. eigenvalues --   -0.35286  -0.34611  -0.33470  -0.22884  -0.21513
 Alpha virt. eigenvalues --    0.08774   0.10640   0.13094   0.13180   0.14690
 Alpha virt. eigenvalues --    0.16132   0.16960   0.17135   0.17850   0.18593
 Alpha virt. eigenvalues --    0.19047   0.19541   0.22552   0.23934   0.25928

 Mulliken charges:
               1
     1  C   -0.201758
     2  N   -0.233967
     3  C   -0.045132
     4  C   -0.007632
     5  N   -0.352494
     6  C   -0.192392
     7  H    0.084698
     8  H    0.109366
     9  H    0.109127
    10  H   -0.037402
    11  H    0.089829
    12  H    0.068054
    13  H    0.060678
    14  H    0.026065
    15  H    0.185821
    16  H    0.113383
    17  H    0.111021
    18  H    0.112734
 Sum of Mulliken charges =  -0.00000

 Dipole moment (field-independent basis, Debye):
    X=              0.6768    Y=              0.0622    Z=             -0.7309  Tot=              0.9981
 Quadrupole moment (field-independent basis, Debye-Ang):
   XX=            -36.3771   YY=            -41.0184   ZZ=            -44.6650
   XY=             -1.3162   XZ=              2.6797   YZ=              0.0374

 Summary of Natural Population Analysis:

                                       Natural Population
                Natural  -----------------------------------------------
    Atom  No    Charge         Core      Valence    Rydberg      Total
 -----------------------------------------------------------------------
      C    1   -0.55919      1.99949     4.53848    0.02122     6.55919
      N    2   -0.45394      1.99944     5.43568    0.01882     7.45394
      C    3   -0.32780      1.99934     4.30896    0.01951     6.32780
      C    4   -0.30599      1.99931     4.28838    0.01830     6.30599
      N    5   -0.48136      1.99946     5.46800    0.01390     7.48136
      C    6   -0.53555      1.99949     4.51792    0.01815     6.53555
      H    7    0.21366      0.00000     0.77241    0.01393     0.78634
      H    8    0.22821      0.00000     0.75739    0.01441     0.77179
      H    9    0.22230      0.00000     0.76719    0.01051     0.77770
      H   10    0.17723      0.00000     0.72752    0.09525     0.82277
      H   11    0.22207      0.00000     0.76181    0.01611     0.77793
      H   12    0.20730      0.00000     0.76420    0.02850     0.79270
      H   13    0.19920      0.00000     0.77854    0.02226     0.80080
      H   14    0.17550      0.00000     0.78496    0.03954     0.82450
      H   15    0.34127      0.00000     0.62315    0.03558     0.65873
      H   16    0.22341      0.00000     0.76571    0.01088     0.77659
      H   17    0.22173      0.00000     0.76665    0.01161     0.77827
      H   18    0.23194      0.00000     0.76167    0.00639     0.76806
 =======================================================================
   * Total *   -0.00000     11.99653    37.58860    0.41487    50.00000

 1\1\GINC-CN33\SP\RB3LYP TD-FC\6-31G(d,p)\C4H12N2\QDUEZ\11-Jul-2024\0\\
 # TD(NStates=10, Root=1) B3LYP/6-31G** SCRF=(Solvent=water) volume pop
 =NPA density=current Geom=AllCheck Guess=Read\\KVKFRMCSXWQSNT-UHFFFAOY
 SA-N_conf_1\\0,1\C,0,-2.714002316,0.8044098364,0.0943958657\N,0,-1.261
 3570159,0.7573844455,-0.0599593465\C,0,-0.7752767637,-0.5494917538,-0.
 5096758219\C,0,0.7503467691,-0.5660086532,-0.5654908768\N,0,1.31876020
 26,-0.3473754645,0.7621230746\C,0,2.7623620184,-0.1381003345,0.7369445
 593\H,0,-3.0230292991,1.8190388762,0.3623713087\H,0,-3.2721439715,0.50

 Normal termination of Gaussian 16 at Thu Jul 11 20:18:59 2024.
