 Gaussian 16, Revision A.03,

 -------------------------------------------------------
 # opt=CalcFc B3LYP/6-31G** SCRF=(Solvent=water) scf=xqc
 -------------------------------------------------------

 ----------------------------------
 GEYOCULIXLDCMW-UHFFFAOYSA-N_conf_0
 ----------------------------------
 Symbolic Z-matrix:
 Charge =  0 Multiplicity = 1

 SCF Done:  E(RB3LYP) =  -342.974292860     A.U. after   12 cycles
 SCF Done:  E(RB3LYP) =  -342.979554840     A.U. after   13 cycles
 SCF Done:  E(RB3LYP) =  -342.977928713     A.U. after   12 cycles
 SCF Done:  E(RB3LYP) =  -342.979746855     A.U. after   10 cycles
 SCF Done:  E(RB3LYP) =  -342.979821277     A.U. after   10 cycles
 SCF Done:  E(RB3LYP) =  -342.979833042     A.U. after    9 cycles
 SCF Done:  E(RB3LYP) =  -342.979843424     A.U. after    9 cycles
 SCF Done:  E(RB3LYP) =  -342.979847736     A.U. after    8 cycles
 SCF Done:  E(RB3LYP) =  -342.979854224     A.U. after    9 cycles
 SCF Done:  E(RB3LYP) =  -342.979861948     A.U. after   10 cycles
 SCF Done:  E(RB3LYP) =  -342.979864246     A.U. after    9 cycles
 SCF Done:  E(RB3LYP) =  -342.979864652     A.U. after    8 cycles
 SCF Done:  E(RB3LYP) =  -342.979864942     A.U. after    7 cycles
 SCF Done:  E(RB3LYP) =  -342.979864939     A.U. after    7 cycles
 Optimization completed.
    -- Stationary point found.

 1\1\GINC-DRG2-W002\FOpt\RB3LYP\6-31G(d,p)\C6H8N2\QDUEZ\17-Jul-2024\0\\
 # opt=CalcFc B3LYP/6-31G** SCRF=(Solvent=water) scf=xqc\\GEYOCULIXLDCM
 W-UHFFFAOYSA-N_conf_0\\0,1\N,-2.0702909677,0.452545684,-0.6714890716\C
 ,-0.7125524411,0.3891955102,-0.2841441832\C,0.0938451395,1.5331646394,
 -0.2789749136\C,1.4562070909,1.466828701,0.0241655917\C,2.0264531605,0
 .2367251226,0.3489825841\C,1.2339941826,-0.9131496322,0.3553124168\C,-
 0.12856755,-0.864659665,0.0309572779\N,-0.8816740777,-2.0464676055,-0.
 0610392441\H,-2.6957133091,-0.0537628626,-0.0511848575\H,-2.4002045616

 Normal termination of Gaussian 16 at Wed Jul 17 18:38:30 2024.

 ----------------------------------------------------------------------
 # freq B3LYP/6-31G** SCRF=(Solvent=water) volume NMR pop=NPA density=c
 urrent Geom=AllCheck Guess=Read
 ----------------------------------------------------------------------

 Structure from the checkpoint file:  "GEYOCULIXLDCMW-UHFFFAOYSA-N_conf_0_1.chk"
 ----------------------------------
 GEYOCULIXLDCMW-UHFFFAOYSA-N_conf_0
 ----------------------------------
 Charge =  0 Multiplicity = 1

 SCF Done:  E(RB3LYP) =  -342.979864939     A.U. after    1 cycles

      1  N    Isotropic =   207.8728   Anisotropy =    44.1058

      2  C    Isotropic =    63.4755   Anisotropy =   138.4099

      3  C    Isotropic =    79.8531   Anisotropy =   127.8110

      4  C    Isotropic =    79.0180   Anisotropy =   150.2028

      5  C    Isotropic =    77.1228   Anisotropy =   153.2354

      6  C    Isotropic =    82.2202   Anisotropy =   128.3054

      7  C    Isotropic =    60.9385   Anisotropy =   142.9886

      8  N    Isotropic =   206.4639   Anisotropy =    43.3923

      9  H    Isotropic =    29.5229   Anisotropy =    11.3338

     10  H    Isotropic =    28.9442   Anisotropy =    12.4703

     11  H    Isotropic =    25.1275   Anisotropy =     5.6433

     12  H    Isotropic =    25.0878   Anisotropy =     3.4192

     13  H    Isotropic =    24.9954   Anisotropy =     3.5035

     14  H    Isotropic =    25.1925   Anisotropy =     5.7180

     15  H    Isotropic =    29.1303   Anisotropy =    11.2104

     16  H    Isotropic =    28.8484   Anisotropy =    12.8522

  Exact polarizability: 136.942   0.520 119.970   1.539   0.549  34.932
 Approx polarizability: 168.124   1.206 145.821  -0.512   0.679  44.133

                      1                      2                      3
                      A                      A                      A
 Frequencies --     71.7076               187.9138               266.8646
 Red. masses --      1.1868                 2.6903                 1.6676
 Frc consts  --      0.0036                 0.0560                 0.0700
 IR Inten    --     14.6619                 6.1567                17.0564

                      4                      5                      6
                      A                      A                      A
 Frequencies --    297.1333               350.2707               441.5063
 Red. masses --      2.4145                 1.9544                 3.3560
 Frc consts  --      0.1256                 0.1413                 0.3854
 IR Inten    --     39.8876                20.9062                 0.5406

                      7                      8                      9
                      A                      A                      A
 Frequencies --    458.2841               529.3836               557.9335
 Red. masses --      2.9205                 5.0657                 3.0283
 Frc consts  --      0.3614                 0.8364                 0.5554
 IR Inten    --     34.7555                 0.6485                24.4645

                     10                     11                     12
                      A                      A                      A
 Frequencies --    597.8130               635.7550               715.7422
 Red. masses --      6.5586                 1.5467                 2.8287
 Frc consts  --      1.3810                 0.3683                 0.8538
 IR Inten    --      3.9436               328.1125               160.8493

                     13                     14                     15
                      A                      A                      A
 Frequencies --    744.6693               764.6521               782.9861
 Red. masses --      1.4667                 2.6805                 1.8552
 Frc consts  --      0.4792                 0.9234                 0.6701
 IR Inten    --     78.5024               179.2748               272.8037

                     16                     17                     18
                      A                      A                      A
 Frequencies --    846.9119               876.2431               911.2352
 Red. masses --      1.4662                 3.1995                 1.3521
 Frc consts  --      0.6196                 1.4474                 0.6615
 IR Inten    --      4.5256                16.5869                12.0460

                     19                     20                     21
                      A                      A                      A
 Frequencies --    952.9309              1062.5871              1067.2750
 Red. masses --      1.2060                 1.9322                 2.0271
 Frc consts  --      0.6452                 1.2854                 1.3604
 IR Inten    --      0.0383                 3.8555                 7.6505

                     22                     23                     24
                      A                      A                      A
 Frequencies --   1133.7042              1176.5584              1179.3014
 Red. masses --      1.2929                 1.1840                 1.0902
 Frc consts  --      0.9791                 0.9657                 0.8933
 IR Inten    --     12.7932                13.9145                 1.7067

                     25                     26                     27
                      A                      A                      A
 Frequencies --   1271.1948              1313.4926              1351.3466
 Red. masses --      3.7437                 3.0404                 1.3602
 Frc consts  --      3.5643                 3.0906                 1.4634
 IR Inten    --     38.8887               172.0405                 0.4155

                     28                     29                     30
                      A                      A                      A
 Frequencies --   1383.9833              1501.7134              1549.6320
 Red. masses --      4.4495                 2.4759                 2.8206
 Frc consts  --      5.0214                 3.2897                 3.9907
 IR Inten    --      1.0094                11.4296               175.2909

                     31                     32                     33
                      A                      A                      A
 Frequencies --   1634.1284              1642.1797              1667.1321
 Red. masses --      1.6867                 5.4317                 2.2430
 Frc consts  --      2.6538                 8.6303                 3.6730
 IR Inten    --      3.8131                29.3921               109.3301

                     34                     35                     36
                      A                      A                      A
 Frequencies --   1685.7507              3167.2080              3170.6772
 Red. masses --      1.1199                 1.0870                 1.0886
 Frc consts  --      1.8751                 6.4243                 6.4482
 IR Inten    --    102.9728                33.2030                10.0706

                     37                     38                     39
                      A                      A                      A
 Frequencies --   3188.0034              3203.9473              3517.3715
 Red. masses --      1.0906                 1.0976                 1.0510
 Frc consts  --      6.5307                 6.6385                 7.6610
 IR Inten    --     36.1459                35.6038                 4.5974

                     40                     41                     42
                      A                      A                      A
 Frequencies --   3558.9615              3610.8883              3656.1024
 Red. masses --      1.0493                 1.0935                 1.0967
 Frc consts  --      7.8305                 8.4006                 8.6373
 IR Inten    --     17.0055                11.1095                14.6895

 - Thermochemistry -
 -------------------
 Temperature   298.150 Kelvin.  Pressure   1.00000 Atm.
 Atom     1 has atomic number  7 and mass  14.00307

 Molecular mass:   108.06875 amu.
 Principal axes and moments of inertia in atomic units:
                           1         2         3
     Eigenvalues --   556.84122 811.934681363.74289
           X            0.99993  -0.00145   0.01131
           Y            0.00144   1.00000   0.00067
           Z           -0.01131  -0.00065   0.99994
 This molecule is an asymmetric top.
 Rotational symmetry number  1.
 Warning -- assumption of classical behavior for rotation
           may cause significant error
 Rotational temperatures (Kelvin)      0.15555     0.10668     0.06351
 Rotational constants (GHZ):           3.24103     2.22277     1.32337
 Zero-point vibrational energy     351002.7 (Joules/Mol)
                                   83.89167 (Kcal/Mol)
 Warning -- explicit consideration of  10 degrees of freedom as
           vibrations may cause significant error
 Vibrational temperatures:    103.17   270.37   383.96   427.51   503.96
          (Kelvin)            635.23   659.37   761.66   802.74   860.12
                              914.71  1029.79  1071.41  1100.16  1126.54
                             1218.52  1260.72  1311.06  1371.06  1528.83
                             1535.57  1631.15  1692.81  1696.75  1828.97
                             1889.82  1944.29  1991.24  2160.63  2229.57
                             2351.15  2362.73  2398.63  2425.42  4556.91
                             4561.90  4586.83  4609.77  5060.71  5120.55
                             5195.26  5260.32

 Zero-point correction=                           0.133690 (Hartree/Particle)
 Thermal correction to Energy=                    0.141130
 Thermal correction to Enthalpy=                  0.142074
 Thermal correction to Gibbs Free Energy=         0.102165
 Sum of electronic and zero-point Energies=           -342.846175
 Sum of electronic and thermal Energies=              -342.838735
 Sum of electronic and thermal Enthalpies=            -342.837791
 Sum of electronic and thermal Free Energies=         -342.877700

                     E (Thermal)             CV                S
                      KCal/Mol        Cal/Mol-Kelvin    Cal/Mol-Kelvin
 Total                   88.560             28.923             83.995
 Electronic               0.000              0.000              0.000
 Translational            0.889              2.981             39.949
 Rotational               0.889              2.981             27.913
 Vibrational             86.783             22.961             16.133
 Vibration     1          0.598              1.967              4.106
 Vibration     2          0.633              1.856              2.248
 Vibration     3          0.672              1.734              1.616
 Vibration     4          0.691              1.679              1.433
 Vibration     5          0.727              1.575              1.165
 Vibration     6          0.801              1.380              0.822
 Vibration     7          0.816              1.343              0.771
 Vibration     8          0.884              1.185              0.589
 Vibration     9          0.913              1.122              0.528
 Vibration    10          0.956              1.036              0.453

 Optimization completed.
    -- Stationary point found.

 1\1\GINC-DRG2-W002\Freq\RB3LYP\6-31G(d,p)\C6H8N2\QDUEZ\17-Jul-2024\0\\
 # freq B3LYP/6-31G** SCRF=(Solvent=water) volume NMR pop=NPA density=c
 urrent Geom=AllCheck Guess=Read\\GEYOCULIXLDCMW-UHFFFAOYSA-N_conf_0\\0
 ,1\N,-2.0702909677,0.452545684,-0.6714890716\C,-0.7125524411,0.3891955
 102,-0.2841441832\C,0.0938451395,1.5331646394,-0.2789749136\C,1.456207
 0909,1.466828701,0.0241655917\C,2.0264531605,0.2367251226,0.3489825841
 \C,1.2339941826,-0.9131496322,0.3553124168\C,-0.12856755,-0.864659665,
 0.0309572779\N,-0.8816740777,-2.0464676055,-0.0610392441\H,-2.69571330

 Normal termination of Gaussian 16 at Wed Jul 17 18:42:12 2024.
 Gaussian 16:  ES64L-G16RevA.03 25-Dec-2016

 ----------------------------------------------------------------------
 # TD(NStates=10, Root=1) B3LYP/6-31G** SCRF=(Solvent=water) volume pop
 =NPA density=current Geom=AllCheck Guess=Read
 ----------------------------------------------------------------------

 Structure from the checkpoint file:  "GEYOCULIXLDCMW-UHFFFAOYSA-N_conf_0_2.chk"
 ----------------------------------
 GEYOCULIXLDCMW-UHFFFAOYSA-N_conf_0
 ----------------------------------
 Charge =  0 Multiplicity = 1

                         Standard orientation:
 ---------------------------------------------------------------------
 Center     Atomic      Atomic             Coordinates (Angstroms)
 Number     Number       Type             X           Y           Z
 ---------------------------------------------------------------------
      1          7           0        1.745294   -1.404319   -0.083128
      2          6           0        0.519058   -0.706196   -0.002671
      3          6           0       -0.703761   -1.387129    0.001301
      4          6           0       -1.922224   -0.703267   -0.001048
      5          6           0       -1.925158    0.690879    0.012679
      6          6           0       -0.713547    1.385307    0.016032
      7          6           0        0.515648    0.712417   -0.004706
      8          7           0        1.718769    1.429254   -0.109344
      9          1           0        2.446889   -1.073865    0.573257
     10          1           0        1.621562   -2.399070    0.072898
     11          1           0       -0.691647   -2.474848    0.006430
     12          1           0       -2.854247   -1.260263   -0.001206
     13          1           0       -2.860706    1.242219    0.022846
     14          1           0       -0.710278    2.472883    0.021034
     15          1           0        2.531534    0.984034    0.296192
     16          1           0        1.648363    2.382292    0.226338
 ---------------------------------------------------------------------

 SCF Done:  E(RB3LYP) =  -342.979864939     A.U. after    1 cycles

 Excitation energies and oscillator strengths:

 Excited State   1:      Singlet-A      4.7043 eV  263.56 nm  f=0.1307  <S**2>=0.000
      28 -> 31         0.24365
      29 -> 30         0.66249
 This state for optimization and/or second-order correction.
 Total Energy, E(TD-HF/TD-DFT) =  -342.806986792
 Copying the excited state density for this state as the 1-particle RhoCI density.

 Excited State   2:      Singlet-A      5.3321 eV  232.52 nm  f=0.2062  <S**2>=0.000
      28 -> 30        -0.19207
      29 -> 31         0.67708

 Excited State   3:      Singlet-A      6.0095 eV  206.31 nm  f=0.0892  <S**2>=0.000
      28 -> 30        -0.13618
      28 -> 31         0.15464
      29 -> 32         0.66919

 Excited State   4:      Singlet-A      6.0242 eV  205.81 nm  f=0.2596  <S**2>=0.000
      28 -> 30         0.65519
      29 -> 31         0.17762
      29 -> 32         0.15206

 Excited State   5:      Singlet-A      6.1724 eV  200.87 nm  f=0.7503  <S**2>=0.000
      27 -> 30        -0.11212
      28 -> 31         0.63212
      29 -> 30        -0.23369
      29 -> 32        -0.15720

 Excited State   6:      Singlet-A      7.0249 eV  176.49 nm  f=0.0027  <S**2>=0.000
      29 -> 33         0.69996

 Excited State   7:      Singlet-A      7.0410 eV  176.09 nm  f=0.0015  <S**2>=0.000
      28 -> 32         0.64750
      29 -> 34         0.26426

 Excited State   8:      Singlet-A      7.3009 eV  169.82 nm  f=0.0091  <S**2>=0.000
      28 -> 32        -0.26454
      29 -> 34         0.64437

 Excited State   9:      Singlet-A      7.6947 eV  161.13 nm  f=0.1778  <S**2>=0.000
      26 -> 30        -0.10338
      26 -> 31         0.23060
      27 -> 30         0.63011
      27 -> 31        -0.12987

 Excited State  10:      Singlet-A      7.7689 eV  159.59 nm  f=0.1708  <S**2>=0.000
      26 -> 30         0.63214
      26 -> 31         0.15327
      27 -> 31        -0.15949
      28 -> 33        -0.15872

 The electronic state is 1-A.
 Alpha  occ. eigenvalues --  -14.33565 -14.33435 -10.22108 -10.21883 -10.17989
 Alpha  occ. eigenvalues --  -10.17897 -10.17775 -10.17643  -0.92722  -0.88660
 Alpha  occ. eigenvalues --   -0.82211  -0.72667  -0.71222  -0.60920  -0.58897
 Alpha  occ. eigenvalues --   -0.52275  -0.50907  -0.48560  -0.46433  -0.43837
 Alpha  occ. eigenvalues --   -0.41616  -0.41294  -0.38529  -0.35795  -0.34102
 Alpha  occ. eigenvalues --   -0.30693  -0.30277  -0.22336  -0.18927
 Alpha virt. eigenvalues --    0.01112   0.02264   0.07054   0.10468   0.11460
 Alpha virt. eigenvalues --    0.14170   0.16016   0.17628   0.18156   0.20309
 Alpha virt. eigenvalues --    0.21384   0.25650   0.27372   0.33378   0.34814

 Mulliken charges:
               1
     1  N   -0.639085
     2  C    0.211392
     3  C   -0.197347
     4  C   -0.110161
     5  C   -0.119958
     6  C   -0.195883
     7  C    0.226742
     8  N   -0.617105
     9  H    0.284401
    10  H    0.287737
    11  H    0.063745
    12  H    0.083341
    13  H    0.079498
    14  H    0.064028
    15  H    0.287966
    16  H    0.290688
 Sum of Mulliken charges =   0.00000

 Dipole moment (field-independent basis, Debye):
    X=              4.3209    Y=             -0.0344    Z=              2.4874  Tot=              4.9858
 Quadrupole moment (field-independent basis, Debye-Ang):
   XX=            -37.7628   YY=            -38.6142   ZZ=            -51.9363
   XY=              0.4326   XZ=              5.8368   YZ=              0.2521

 Summary of Natural Population Analysis:

                                       Natural Population
                Natural  -----------------------------------------------
    Atom  No    Charge         Core      Valence    Rydberg      Total
 -----------------------------------------------------------------------
      N    1   -0.78926      1.99952     5.77708    0.01266     7.78926
      C    2    0.11354      1.99891     3.86865    0.01890     5.88646
      C    3   -0.40270      1.99908     4.38347    0.02015     6.40270
      C    4   -0.22731      1.99912     4.21148    0.01670     6.22731
      C    5   -0.25273      1.99913     4.23621    0.01739     6.25273
      C    6   -0.39992      1.99908     4.38021    0.02063     6.39992
      C    7    0.12901      1.99891     3.85322    0.01886     5.87099
      N    8   -0.75459      1.99950     5.74306    0.01204     7.75459
      H    9    0.40869      0.00000     0.58836    0.00295     0.59131
      H   10    0.41758      0.00000     0.57944    0.00298     0.58242
      H   11    0.22680      0.00000     0.77154    0.00166     0.77320
      H   12    0.23547      0.00000     0.76301    0.00152     0.76453
      H   13    0.23449      0.00000     0.76396    0.00154     0.76551
      H   14    0.22727      0.00000     0.77099    0.00173     0.77273
      H   15    0.41489      0.00000     0.58269    0.00242     0.58511
      H   16    0.41878      0.00000     0.57720    0.00403     0.58122
 =======================================================================
   * Total *   -0.00000     15.99326    41.85058    0.15616    58.00000

 Normal termination of Gaussian 16 at Wed Jul 17 18:47:19 2024.
