 Gaussian 16, Revision A.03,

 -------------------------------------------------------
 # opt=CalcFc B3LYP/6-31G** SCRF=(Solvent=water) scf=xqc
 -------------------------------------------------------

 ----------------------------------
 ISKQADXMHQSTHK-UHFFFAOYSA-N_conf_2
 ----------------------------------
 Symbolic Z-matrix:
 Charge =  0 Multiplicity = 1

 SCF Done:  E(RB3LYP) =  -421.594316538     A.U. after   12 cycles
 SCF Done:  E(RB3LYP) =  -421.597081996     A.U. after   10 cycles
 SCF Done:  E(RB3LYP) =  -421.597348713     A.U. after   11 cycles
 SCF Done:  E(RB3LYP) =  -421.597375725     A.U. after   10 cycles
 SCF Done:  E(RB3LYP) =  -421.597346798     A.U. after   10 cycles
 SCF Done:  E(RB3LYP) =  -421.597380974     A.U. after   10 cycles
 SCF Done:  E(RB3LYP) =  -421.597382022     A.U. after    8 cycles
 SCF Done:  E(RB3LYP) =  -421.597382157     A.U. after    7 cycles
 Optimization completed.
    -- Stationary point found.
 Normal termination of Gaussian 16 at Thu Jul 11 19:43:23 2024.

 ----------------------------------------------------------------------
 # freq B3LYP/6-31G** SCRF=(Solvent=water) volume NMR pop=NPA density=c
 urrent Geom=AllCheck Guess=Read
 ----------------------------------------------------------------------

 Structure from the checkpoint file:  "ISKQADXMHQSTHK-UHFFFAOYSA-N_conf_2_1.chk"
 ----------------------------------
 ISKQADXMHQSTHK-UHFFFAOYSA-N_conf_2
 ----------------------------------
 Charge =  0 Multiplicity = 1

 SCF Done:  E(RB3LYP) =  -421.597382157     A.U. after    1 cycles

      1  N    Isotropic =   232.4134   Anisotropy =    32.2701

      2  C    Isotropic =   142.9880   Anisotropy =    26.7087

      3  C    Isotropic =    54.3494   Anisotropy =   179.5986

      4  C    Isotropic =    68.4428   Anisotropy =   149.8004

      5  C    Isotropic =    69.4047   Anisotropy =   151.2953

      6  C    Isotropic =    52.4365   Anisotropy =   187.1457

      7  C    Isotropic =   142.1957   Anisotropy =    24.5901

      8  N    Isotropic =   217.2677   Anisotropy =    30.3518

      9  C    Isotropic =    68.7803   Anisotropy =   153.1433

     10  C    Isotropic =    68.9995   Anisotropy =   170.4139

     11  H    Isotropic =    30.7919   Anisotropy =    15.5375

     12  H    Isotropic =    31.2148   Anisotropy =    11.3700

     13  H    Isotropic =    27.8682   Anisotropy =     5.9445

     14  H    Isotropic =    27.8830   Anisotropy =     7.9654

     15  H    Isotropic =    24.5271   Anisotropy =     6.3714

     16  H    Isotropic =    24.4993   Anisotropy =     6.5241

     17  H    Isotropic =    28.2373   Anisotropy =     6.1933

     18  H    Isotropic =    28.2481   Anisotropy =     6.1898

     19  H    Isotropic =    31.1935   Anisotropy =    11.0470

     20  H    Isotropic =    31.2127   Anisotropy =    11.0633

     21  H    Isotropic =    24.3660   Anisotropy =     6.7517

     22  H    Isotropic =    23.7442   Anisotropy =     8.6073

  Exact polarizability: 167.082  -0.115 132.203  -0.767   9.038  73.554
 Approx polarizability: 183.339   0.722 162.286  -0.755  12.781  85.632

                      1                      2                      3
                      A                      A                      A
 Frequencies --     29.8480                48.4964                88.8219
 Red. masses --      2.7252                 2.7746                 3.3726
 Frc consts  --      0.0014                 0.0038                 0.0157
 IR Inten    --      3.0802                 1.6452                 1.3832

                      4                      5                      6
                      A                      A                      A
 Frequencies --    183.6970               221.4128               261.1301
 Red. masses --      3.1938                 1.8627                 2.0491
 Frc consts  --      0.0635                 0.0538                 0.0823
 IR Inten    --      6.9098                26.4595                17.2660

                      7                      8                      9
                      A                      A                      A
 Frequencies --    272.6956               349.1553               389.3717
 Red. masses --      1.2958                 1.8591                 2.3128
 Frc consts  --      0.0568                 0.1335                 0.2066
 IR Inten    --     94.3415                26.6015                11.4697

                     10                     11                     12
                      A                      A                      A
 Frequencies --    419.2406               447.6296               486.6331
 Red. masses --      2.9807                 3.9834                 3.5356
 Frc consts  --      0.3087                 0.4703                 0.4933
 IR Inten    --      0.8076                 1.1536                12.4669

                     13                     14                     15
                      A                      A                      A
 Frequencies --    601.1661               653.5079               704.3008
 Red. masses --      2.6969                 6.7973                 3.6229
 Frc consts  --      0.5743                 1.7104                 1.0588
 IR Inten    --     31.6143                 0.0788                 1.5951

                     16                     17                     18
                      A                      A                      A
 Frequencies --    766.5002               820.1503               846.6826
 Red. masses --      3.0448                 2.9131                 1.6642
 Frc consts  --      1.0540                 1.1545                 0.7029
 IR Inten    --     27.5905                33.1742                59.0668

                     19                     20                     21
                      A                      A                      A
 Frequencies --    862.1033               886.9213               887.4852
 Red. masses --      1.2528                 1.3765                 1.3185
 Frc consts  --      0.5486                 0.6379                 0.6118
 IR Inten    --      1.8837               118.5730                 2.0130

                     22                     23                     24
                      A                      A                      A
 Frequencies --    937.7659               969.3465               980.7210
 Red. masses --      2.4324                 1.3028                 1.3265
 Frc consts  --      1.2603                 0.7212                 0.7517
 IR Inten    --    303.4771                 4.0493                 1.0425

                     25                     26                     27
                      A                      A                      A
 Frequencies --   1005.4937              1035.1082              1060.7704
 Red. masses --      1.8353                 2.8914                 2.4569
 Frc consts  --      1.0933                 1.8253                 1.6289
 IR Inten    --     49.9028                 3.0464                10.5131

                     28                     29                     30
                      A                      A                      A
 Frequencies --   1093.3141              1124.4316              1165.9731
 Red. masses --      2.2367                 1.3496                 1.1729
 Frc consts  --      1.5753                 1.0054                 0.9395
 IR Inten    --     56.9987                 2.1981                 6.3456

                     31                     32                     33
                      A                      A                      A
 Frequencies --   1177.3601              1201.1725              1221.5786
 Red. masses --      1.2692                 1.1397                 4.2794
 Frc consts  --      1.0366                 0.9689                 3.7625
 IR Inten    --      9.2241                 0.4701                 9.2414

                     34                     35                     36
                      A                      A                      A
 Frequencies --   1233.4763              1303.1414              1346.6827
 Red. masses --      2.0063                 1.4789                 1.6272
 Frc consts  --      1.7985                 1.4797                 1.7387
 IR Inten    --      1.0262                 7.7833                 1.0464

                     37                     38                     39
                      A                      A                      A
 Frequencies --   1360.4739              1376.9201              1395.0327
 Red. masses --      2.1462                 1.2781                 1.2449
 Frc consts  --      2.3405                 1.4277                 1.4274
 IR Inten    --      3.5950                37.1472                 0.2909

                     40                     41                     42
                      A                      A                      A
 Frequencies --   1425.8632              1459.9763              1494.4803
 Red. masses --      1.5325                 2.3141                 1.0910
 Frc consts  --      1.8358                 2.9062                 1.4357
 IR Inten    --     39.3558                17.3648                 2.2234

                     43                     44                     45
                      A                      A                      A
 Frequencies --   1510.0197              1552.4898              1624.0122
 Red. masses --      1.0909                 2.4675                 5.8568
 Frc consts  --      1.4655                 3.5040                 9.1011
 IR Inten    --      1.5544                13.7487                 0.4643

                     46                     47                     48
                      A                      A                      A
 Frequencies --   1653.1596              1662.2954              1666.7597
 Red. masses --      1.1843                 1.0880                 4.2229
 Frc consts  --      1.9070                 1.7713                 6.9120
 IR Inten    --     30.5470                32.1135                 3.3878

                     49                     50                     51
                      A                      A                      A
 Frequencies --   2977.3765              3034.0779              3045.1824
 Red. masses --      1.0695                 1.0921                 1.0594
 Frc consts  --      5.5861                 5.9232                 5.7881
 IR Inten    --    114.6063                52.3347                74.2709

                     52                     53                     54
                      A                      A                      A
 Frequencies --   3090.0577              3164.8703              3167.3311
 Red. masses --      1.1063                 1.0868                 1.0890
 Frc consts  --      6.2237                 6.4136                 6.4370
 IR Inten    --     43.2996                19.6732                30.9850

                     55                     56                     57
                      A                      A                      A
 Frequencies --   3181.5286              3206.3476              3470.7107
 Red. masses --      1.0944                 1.0918                 1.0504
 Frc consts  --      6.5267                 6.6134                 7.4549
 IR Inten    --     38.0588                14.4137                 0.5925

                     58                     59                     60
                      A                      A                      A
 Frequencies --   3483.0014              3548.6042              3565.1728
 Red. masses --      1.0507                 1.0915                 1.0922
 Frc consts  --      7.5096                 8.0984                 8.1794
 IR Inten    --      1.8338                 0.0058                 0.0459

 - Thermochemistry -
 -------------------
 Temperature   298.150 Kelvin.  Pressure   1.00000 Atm.
 Atom     1 has atomic number  7 and mass  14.00307

 Molecular mass:   136.10005 amu.
 Principal axes and moments of inertia in atomic units:
                           1         2         3
     Eigenvalues --   504.477342748.279052990.31129
           X            0.99999  -0.00289  -0.00262
           Y            0.00292   0.99992   0.01252
           Z            0.00258  -0.01252   0.99992
 This molecule is an asymmetric top.
 Rotational symmetry number  1.
 Warning -- assumption of classical behavior for rotation
           may cause significant error
 Rotational temperatures (Kelvin)      0.17169     0.03152     0.02896
 Rotational constants (GHZ):           3.57745     0.65668     0.60353
 Zero-point vibrational energy     503622.0 (Joules/Mol)
                                  120.36856 (Kcal/Mol)
 Warning -- explicit consideration of  13 degrees of freedom as
           vibrations may cause significant error
 Vibrational temperatures:     42.94    69.78   127.79   264.30   318.56
          (Kelvin)            375.71   392.35   502.36   560.22   603.19
                              644.04   700.16   864.94   940.25  1013.33
                             1102.82  1180.01  1218.19  1240.37  1276.08
                             1276.89  1349.24  1394.67  1411.04  1446.68
                             1489.29  1526.21  1573.04  1617.81  1677.58
                             1693.96  1728.22  1757.58  1774.70  1874.93
                             1937.58  1957.42  1981.08  2007.14  2051.50
                             2100.58  2150.22  2172.58  2233.69  2336.59
                             2378.53  2391.67  2398.10  4283.78  4365.36
                             4381.34  4445.90  4553.54  4557.08  4577.51
                             4613.22  4993.58  5011.26  5105.65  5129.49

 Zero-point correction=                           0.191820 (Hartree/Particle)
 Thermal correction to Energy=                    0.201884
 Thermal correction to Enthalpy=                  0.202828
 Thermal correction to Gibbs Free Energy=         0.155244
 Sum of electronic and zero-point Energies=           -421.405563
 Sum of electronic and thermal Energies=              -421.395499
 Sum of electronic and thermal Enthalpies=            -421.394554
 Sum of electronic and thermal Free Energies=         -421.442138

                     E (Thermal)             CV                S
                      KCal/Mol        Cal/Mol-Kelvin    Cal/Mol-Kelvin
 Total                  126.684             37.473            100.149
 Electronic               0.000              0.000              0.000
 Translational            0.889              2.981             40.637
 Rotational               0.889              2.981             29.807
 Vibrational            124.906             31.512             29.706
 Vibration     1          0.594              1.984              5.839
 Vibration     2          0.595              1.978              4.878
 Vibration     3          0.602              1.957              3.686
 Vibration     4          0.631              1.862              2.291
 Vibration     5          0.648              1.808              1.948
 Vibration     6          0.669              1.744              1.654
 Vibration     7          0.676              1.724              1.579
 Vibration     8          0.726              1.577              1.170
 Vibration     9          0.757              1.493              1.003
 Vibration    10          0.782              1.428              0.895
 Vibration    11          0.807              1.366              0.803
 Vibration    12          0.843              1.280              0.692
 Vibration    13          0.959              1.029              0.448

 Optimization completed.
    -- Stationary point found.
 Normal termination of Gaussian 16 at Thu Jul 11 20:00:42 2024.
 Gaussian 16:  EM64L-G16RevA.03 25-Dec-2016

 ----------------------------------------------------------------------
 # TD(NStates=10, Root=1) B3LYP/6-31G** SCRF=(Solvent=water) volume pop
 =NPA density=current Geom=AllCheck Guess=Read
 ----------------------------------------------------------------------

 Structure from the checkpoint file:  "ISKQADXMHQSTHK-UHFFFAOYSA-N_conf_2_2.chk"
 ----------------------------------
 ISKQADXMHQSTHK-UHFFFAOYSA-N_conf_2
 ----------------------------------
 Charge =  0 Multiplicity = 1

                         Standard orientation:
 ---------------------------------------------------------------------
 Center     Atomic      Atomic             Coordinates (Angstroms)
 Number     Number       Type             X           Y           Z
 ---------------------------------------------------------------------
      1          7           0       -3.526212   -0.750549    0.594748
      2          6           0       -2.907308    0.385183   -0.105529
      3          6           0       -1.396365    0.261384   -0.164495
      4          6           0       -0.580507    1.386532    0.004762
      5          6           0        0.809028    1.287016   -0.086872
      6          6           0        1.427978    0.056289   -0.340496
      7          6           0        2.940941   -0.066417   -0.375127
      8          7           0        3.583565   -0.364033    0.921599
      9          6           0        0.608585   -1.069814   -0.508741
     10          6           0       -0.779326   -0.970901   -0.422355
     11          1           0       -4.538301   -0.647334    0.558284
     12          1           0       -3.279841   -0.704573    1.582030
     13          1           0       -3.307943    0.390102   -1.128551
     14          1           0       -3.161666    1.367002    0.325248
     15          1           0       -1.037209    2.352445    0.207740
     16          1           0        1.420293    2.177171    0.044866
     17          1           0        3.228559   -0.859003   -1.075094
     18          1           0        3.376031    0.865708   -0.752738
     19          1           0        3.180984   -1.224406    1.291842
     20          1           0        3.313463    0.357936    1.588868
     21          1           0        1.065104   -2.035859   -0.714088
     22          1           0       -1.399102   -1.852747   -0.549721
 ---------------------------------------------------------------------

 SCF Done:  E(RB3LYP) =  -421.597382157     A.U. after    1 cycles

 Excitation energies and oscillator strengths:

 Excited State   1:      Singlet-A      5.1923 eV  238.78 nm  f=0.0101  <S**2>=0.000
      35 -> 38        -0.33160
      36 -> 38         0.13324
      37 -> 38         0.17872
      37 -> 39         0.56918
 This state for optimization and/or second-order correction.
 Total Energy, E(TD-HF/TD-DFT) =  -421.406568193
 Copying the excited state density for this state as the 1-particle RhoCI density.

 Excited State   2:      Singlet-A      5.4198 eV  228.76 nm  f=0.2194  <S**2>=0.000
      34 -> 38         0.18908
      36 -> 38        -0.14965
      37 -> 38         0.63413
      37 -> 39        -0.17085

 Excited State   3:      Singlet-A      5.6451 eV  219.63 nm  f=0.0500  <S**2>=0.000
      35 -> 38         0.12969
      36 -> 38         0.66535
      37 -> 39        -0.12386

 Excited State   4:      Singlet-A      5.7583 eV  215.31 nm  f=0.0092  <S**2>=0.000
      35 -> 38        -0.10934
      35 -> 39         0.15313
      36 -> 39         0.67247

 Excited State   5:      Singlet-A      5.8446 eV  212.14 nm  f=0.0209  <S**2>=0.000
      34 -> 38         0.17041
      34 -> 39         0.51922
      35 -> 38         0.32630
      36 -> 39         0.14563
      37 -> 39         0.25672

 Excited State   6:      Singlet-A      6.1029 eV  203.16 nm  f=0.0287  <S**2>=0.000
      34 -> 38         0.56853
      34 -> 39        -0.16156
      35 -> 38        -0.10292
      35 -> 39        -0.33611
      37 -> 38        -0.13404

 Excited State   7:      Singlet-A      6.6226 eV  187.21 nm  f=1.0203  <S**2>=0.000
      34 -> 38         0.28849
      34 -> 39        -0.11905
      35 -> 38         0.15309
      35 -> 39         0.56519
      36 -> 39        -0.10919
      37 -> 38        -0.16525

 Excited State   8:      Singlet-A      6.6402 eV  186.72 nm  f=0.6139  <S**2>=0.000
      34 -> 38        -0.12360
      34 -> 39        -0.40708
      35 -> 38         0.46532
      35 -> 39        -0.14207
      37 -> 39         0.23249

 Excited State   9:      Singlet-A      7.5617 eV  163.96 nm  f=0.0032  <S**2>=0.000
      33 -> 38         0.67637
      33 -> 39        -0.10633

 Excited State  10:      Singlet-A      7.6286 eV  162.53 nm  f=0.0052  <S**2>=0.000
      34 -> 40         0.13149
      36 -> 41        -0.29047
      37 -> 40         0.57485
      37 -> 41        -0.13350

 The electronic state is 1-A.
 Alpha  occ. eigenvalues --  -14.31426 -14.31388 -10.21040 -10.20890 -10.19180
 Alpha  occ. eigenvalues --  -10.18988 -10.18649 -10.18595 -10.18593 -10.18351
 Alpha  occ. eigenvalues --   -0.88417  -0.87942  -0.84231  -0.75896  -0.73986
 Alpha  occ. eigenvalues --   -0.68067  -0.63016  -0.60378  -0.56761  -0.50222
 Alpha  occ. eigenvalues --   -0.49196  -0.47439  -0.45972  -0.44629  -0.41845
 Alpha  occ. eigenvalues --   -0.41793  -0.41237  -0.40585  -0.38693  -0.36057
 Alpha  occ. eigenvalues --   -0.35132  -0.33673  -0.33080  -0.25414  -0.24962
 Alpha  occ. eigenvalues --   -0.24160  -0.22623
 Alpha virt. eigenvalues --   -0.00366  -0.00114   0.09188   0.09565   0.11592
 Alpha virt. eigenvalues --    0.12879   0.13834   0.14438   0.15097   0.16484
 Alpha virt. eigenvalues --    0.17402   0.18150   0.19153   0.19862   0.21204

 Mulliken charges:
               1
     1  N   -0.611113
     2  C   -0.117238
     3  C    0.112935
     4  C   -0.172656
     5  C   -0.161935
     6  C    0.105752
     7  C   -0.133152
     8  N   -0.560364
     9  C   -0.164833
    10  C   -0.149903
    11  H    0.263078
    12  H    0.261790
    13  H    0.134501
    14  H    0.107267
    15  H    0.075275
    16  H    0.077598
    17  H    0.119210
    18  H    0.119156
    19  H    0.271214
    20  H    0.271089
    21  H    0.075891
    22  H    0.076440
 Sum of Mulliken charges =  -0.00000

 Dipole moment (field-independent basis, Debye):
    X=             -1.4314    Y=              0.9360    Z=              2.0047  Tot=              2.6351
 Quadrupole moment (field-independent basis, Debye-Ang):
   XX=            -51.1264   YY=            -59.7689   ZZ=            -58.1827
   XY=             -3.3333   XZ=             -1.7164   YZ=              0.0919

 Summary of Natural Population Analysis:

                                       Natural Population
                Natural  -----------------------------------------------
    Atom  No    Charge         Core      Valence    Rydberg      Total
 -----------------------------------------------------------------------
      N    1   -0.88987      1.99964     5.87583    0.01440     7.88987
      C    2   -0.28434      1.99928     4.27030    0.01477     6.28434
      C    3   -0.00476      1.99904     3.98844    0.01728     6.00476
      C    4   -0.28990      1.99907     4.27253    0.01830     6.28990
      C    5   -0.28588      1.99906     4.26822    0.01859     6.28588
      C    6   -0.02903      1.99903     4.01362    0.01638     6.02903
      C    7   -0.29820      1.99928     4.28147    0.01746     6.29820
      N    8   -0.80434      1.99968     5.79098    0.01368     7.80434
      C    9   -0.28806      1.99907     4.27046    0.01854     6.28806
      C   10   -0.29176      1.99907     4.27390    0.01879     6.29176
      H   11    0.39706      0.00000     0.59998    0.00297     0.60294
      H   12    0.39323      0.00000     0.60356    0.00322     0.60677
      H   13    0.25255      0.00000     0.74477    0.00268     0.74745
      H   14    0.22744      0.00000     0.76990    0.00266     0.77256
      H   15    0.22948      0.00000     0.76876    0.00176     0.77052
      H   16    0.23042      0.00000     0.76784    0.00174     0.76958
      H   17    0.23955      0.00000     0.75793    0.00251     0.76045
      H   18    0.23953      0.00000     0.75799    0.00248     0.76047
      H   19    0.39552      0.00000     0.60092    0.00355     0.60448
      H   20    0.39546      0.00000     0.60099    0.00354     0.60454
      H   21    0.22899      0.00000     0.76927    0.00174     0.77101
      H   22    0.23691      0.00000     0.76090    0.00219     0.76309
 =======================================================================
   * Total *    0.00000     19.99223    53.80854    0.19923    74.00000

 1\1\GINC-CN36\SP\RB3LYP TD-FC\6-31G(d,p)\C8H12N2\QDUEZ\11-Jul-2024\0\\
 # TD(NStates=10, Root=1) B3LYP/6-31G** SCRF=(Solvent=water) volume pop
 =NPA density=current Geom=AllCheck Guess=Read\\ISKQADXMHQSTHK-UHFFFAOY
 SA-N_conf_2\\0,1\N,0,-3.357069214,1.1530327484,0.6503398024\C,0,-2.885
 3716352,0.0342384746,-0.1797902893\C,0,-1.3797483212,-0.1355814936,-0.
 1022440792\C,0,-0.6383579889,-0.4636035901,-1.2437215237\C,0,0.7420713
 505,-0.6596145171,-1.172279559\C,0,1.427157546,-0.5234639408,0.0419007
 318\C,0,2.9367545507,-0.6712788427,0.1095752269\N,0,3.7065784262,0.571

 Normal termination of Gaussian 16 at Thu Jul 11 20:24:49 2024.
