 Gaussian 16, Revision A.03,

 -------------------------------------------------------
 # opt=CalcFc B3LYP/6-31G** SCRF=(Solvent=water) scf=xqc
 -------------------------------------------------------

 ----------------------------------
 ISKQADXMHQSTHK-UHFFFAOYSA-N_conf_3
 ----------------------------------
 Symbolic Z-matrix:
 Charge =  0 Multiplicity = 1

 SCF Done:  E(RB3LYP) =  -421.595311034     A.U. after   11 cycles
 SCF Done:  E(RB3LYP) =  -421.598090961     A.U. after    9 cycles
 SCF Done:  E(RB3LYP) =  -421.598114988     A.U. after    8 cycles
 SCF Done:  E(RB3LYP) =  -421.598115296     A.U. after    7 cycles
 Optimization completed.
    -- Stationary point found.
 Normal termination of Gaussian 16 at Thu Jul 11 19:34:22 2024.

 ----------------------------------------------------------------------
 # freq B3LYP/6-31G** SCRF=(Solvent=water) volume NMR pop=NPA density=c
 urrent Geom=AllCheck Guess=Read
 ----------------------------------------------------------------------

 Structure from the checkpoint file:  "ISKQADXMHQSTHK-UHFFFAOYSA-N_conf_3_1.chk"
 ----------------------------------
 ISKQADXMHQSTHK-UHFFFAOYSA-N_conf_3
 ----------------------------------
 Charge =  0 Multiplicity = 1

 SCF Done:  E(RB3LYP) =  -421.598115296     A.U. after    1 cycles

      1  N    Isotropic =   217.2557   Anisotropy =    30.1483

      2  C    Isotropic =   142.1762   Anisotropy =    24.6116

      3  C    Isotropic =    52.3979   Anisotropy =   188.9813

      4  C    Isotropic =    68.3909   Anisotropy =   153.0024

      5  C    Isotropic =    68.3909   Anisotropy =   153.0024

      6  C    Isotropic =    52.3979   Anisotropy =   188.9813

      7  C    Isotropic =   142.1762   Anisotropy =    24.6116

      8  N    Isotropic =   217.2557   Anisotropy =    30.1483

      9  C    Isotropic =    68.3909   Anisotropy =   153.0023

     10  C    Isotropic =    68.3909   Anisotropy =   153.0023

     11  H    Isotropic =    31.1908   Anisotropy =    11.0806

     12  H    Isotropic =    31.1908   Anisotropy =    11.0806

     13  H    Isotropic =    28.2463   Anisotropy =     6.2163

     14  H    Isotropic =    28.2463   Anisotropy =     6.2163

     15  H    Isotropic =    24.4109   Anisotropy =     6.6010

     16  H    Isotropic =    24.4109   Anisotropy =     6.6010

     17  H    Isotropic =    28.2463   Anisotropy =     6.2163

     18  H    Isotropic =    28.2463   Anisotropy =     6.2163

     19  H    Isotropic =    31.1908   Anisotropy =    11.0806

     20  H    Isotropic =    31.1908   Anisotropy =    11.0806

     21  H    Isotropic =    24.4109   Anisotropy =     6.6010

     22  H    Isotropic =    24.4109   Anisotropy =     6.6010

  Exact polarizability: 163.112   0.000 136.004   0.000   0.000  74.671
 Approx polarizability: 181.769   0.000 167.417  -0.000   0.000  85.722

                      1                      2                      3
                      A                      A                      A
 Frequencies --     12.8430                29.8708                72.8156
 Red. masses --      2.0894                 2.9254                 4.7700
 Frc consts  --      0.0002                 0.0015                 0.0149
 IR Inten    --      0.0000                 1.7147                 1.2475

                      4                      5                      6
                      A                      A                      A
 Frequencies --    176.0701               225.0658               267.7407
 Red. masses --      4.3755                 1.5625                 1.2751
 Frc consts  --      0.0799                 0.0466                 0.0539
 IR Inten    --      0.1578                71.9174                 0.0000

                      7                      8                      9
                      A                      A                      A
 Frequencies --    274.7379               341.4921               398.0557
 Red. masses --      4.2069                 1.3841                 1.8263
 Frc consts  --      0.1871                 0.0951                 0.1705
 IR Inten    --      4.4832                96.4462                 0.0000

                     10                     11                     12
                      A                      A                      A
 Frequencies --    415.8445               459.5727               463.4645
 Red. masses --      2.9631                 4.2605                 4.0061
 Frc consts  --      0.3019                 0.5302                 0.5070
 IR Inten    --      0.0000                 0.0034                 0.1854

                     13                     14                     15
                      A                      A                      A
 Frequencies --    611.2940               654.0698               706.5418
 Red. masses --      2.3630                 6.6298                 3.9799
 Frc consts  --      0.5203                 1.6711                 1.1706
 IR Inten    --     61.5242                 0.0000                 1.2635

                     16                     17                     18
                      A                      A                      A
 Frequencies --    779.6563               820.0744               857.2419
 Red. masses --      3.3362                 3.3338                 1.2488
 Frc consts  --      1.1948                 1.3210                 0.5407
 IR Inten    --      9.7686                50.7040                 0.1670

                     19                     20                     21
                      A                      A                      A
 Frequencies --    861.7923               880.4233               894.3989
 Red. masses --      1.7535                 1.3168                 1.2880
 Frc consts  --      0.7673                 0.6014                 0.6071
 IR Inten    --      0.6842                 1.2512                 0.0000

                     22                     23                     24
                      A                      A                      A
 Frequencies --    933.4272               939.5723               967.6670
 Red. masses --      2.3402                 2.5124                 1.2911
 Frc consts  --      1.2014                 1.3068                 0.7123
 IR Inten    --    516.9257               117.8926                 0.2995

                     25                     26                     27
                      A                      A                      A
 Frequencies --    972.7657              1036.5925              1092.2639
 Red. masses --      1.3520                 2.8701                 2.2628
 Frc consts  --      0.7538                 1.8171                 1.5906
 IR Inten    --      0.0000                 0.9118               108.5645

                     28                     29                     30
                      A                      A                      A
 Frequencies --   1094.0256              1114.1649              1166.4486
 Red. masses --      2.2381                 1.3646                 1.1321
 Frc consts  --      1.5783                 0.9981                 0.9075
 IR Inten    --      0.0447                 1.7557                 0.0000

                     31                     32                     33
                      A                      A                      A
 Frequencies --   1166.6343              1206.0847              1218.1759
 Red. masses --      1.2024                 1.2057                 4.4704
 Frc consts  --      0.9642                 1.0334                 3.9085
 IR Inten    --     10.8324                 0.0451                 0.2616

                     34                     35                     36
                      A                      A                      A
 Frequencies --   1231.8156              1346.5255              1352.2628
 Red. masses --      2.2410                 1.3247                 4.9628
 Frc consts  --      2.0034                 1.4151                 5.3469
 IR Inten    --      8.7090                 0.0000                 0.1687

                     37                     38                     39
                      A                      A                      A
 Frequencies --   1375.6439              1377.3176              1393.1935
 Red. masses --      1.2844                 1.2750                 1.2911
 Frc consts  --      1.4320                 1.4250                 1.4765
 IR Inten    --     65.6481                 5.8687                 0.0680

                     40                     41                     42
                      A                      A                      A
 Frequencies --   1397.1724              1459.7089              1494.4179
 Red. masses --      1.1746                 2.4461                 1.0952
 Frc consts  --      1.3509                 3.0709                 1.4411
 IR Inten    --      0.0000                 7.8638                 0.6076

                     43                     44                     45
                      A                      A                      A
 Frequencies --   1495.1175              1551.1703              1622.8873
 Red. masses --      1.0863                 2.4248                 6.0257
 Frc consts  --      1.4308                 3.4375                 9.3505
 IR Inten    --      4.0744                 9.7052                 0.0000

                     46                     47                     48
                      A                      A                      A
 Frequencies --   1661.4885              1661.7335              1663.8257
 Red. masses --      1.2007                 1.0850                 3.8540
 Frc consts  --      1.9529                 1.7652                 6.2861
 IR Inten    --     43.4203                13.0316                 3.5208

                     49                     50                     51
                      A                      A                      A
 Frequencies --   3045.7808              3046.5247              3091.2110
 Red. masses --      1.0593                 1.0595                 1.1063
 Frc consts  --      5.7896                 5.7938                 6.2287
 IR Inten    --     77.0256                71.5880                85.4207

                     52                     53                     54
                      A                      A                      A
 Frequencies --   3091.2755              3163.5766              3163.9791
 Red. masses --      1.1064                 1.0868                 1.0865
 Frc consts  --      6.2295                 6.4085                 6.4083
 IR Inten    --      0.0000                34.6425                 0.0000

                     55                     56                     57
                      A                      A                      A
 Frequencies --   3178.2339              3181.9102              3470.2616
 Red. masses --      1.0943                 1.0949                 1.0504
 Frc consts  --      6.5128                 6.5312                 7.4532
 IR Inten    --     78.2384                 0.7251                 0.1891

                     58                     59                     60
                      A                      A                      A
 Frequencies --   3470.2839              3548.4125              3548.4176
 Red. masses --      1.0504                 1.0916                 1.0916
 Frc consts  --      7.4532                 8.0978                 8.0980
 IR Inten    --      0.9416                 0.0481                 0.0000

 - Thermochemistry -
 -------------------
 Temperature   298.150 Kelvin.  Pressure   1.00000 Atm.
 Atom     1 has atomic number  7 and mass  14.00307

 Molecular mass:   136.10005 amu.
 Principal axes and moments of inertia in atomic units:
                           1         2         3
     Eigenvalues --   534.618482756.739112891.56957
           X            1.00000   0.00000  -0.00000
           Y           -0.00000   1.00000   0.00000
           Z            0.00000  -0.00000   1.00000
 This molecule is an asymmetric top.
 Rotational symmetry number  1.
 Warning -- assumption of classical behavior for rotation
           may cause significant error
 Rotational temperatures (Kelvin)      0.16201     0.03142     0.02995
 Rotational constants (GHZ):           3.37576     0.65467     0.62414
 Zero-point vibrational energy     503598.2 (Joules/Mol)
                                  120.36285 (Kcal/Mol)
 Warning -- explicit consideration of  13 degrees of freedom as
           vibrations may cause significant error
 Vibrational temperatures:     18.48    42.98   104.77   253.33   323.82
          (Kelvin)            385.22   395.29   491.33   572.71   598.31
                              661.22   666.82   879.52   941.06  1016.56
                             1121.75  1179.90  1233.38  1239.93  1266.73
                             1286.84  1342.99  1351.84  1392.26  1399.59
                             1491.43  1571.52  1574.06  1603.03  1678.26
                             1678.53  1735.29  1752.68  1772.31  1937.35
                             1945.60  1979.24  1981.65  2004.49  2010.22
                             2100.20  2150.13  2151.14  2231.79  2334.97
                             2390.51  2390.86  2393.87  4382.20  4383.27
                             4447.56  4447.66  4551.68  4552.26  4572.77
                             4578.06  4992.93  4992.96  5105.37  5105.38

 Zero-point correction=                           0.191810 (Hartree/Particle)
 Thermal correction to Energy=                    0.201986
 Thermal correction to Enthalpy=                  0.202931
 Thermal correction to Gibbs Free Energy=         0.153886
 Sum of electronic and zero-point Energies=           -421.406305
 Sum of electronic and thermal Energies=              -421.396129
 Sum of electronic and thermal Enthalpies=            -421.395185
 Sum of electronic and thermal Free Energies=         -421.444229

                     E (Thermal)             CV                S
                      KCal/Mol        Cal/Mol-Kelvin    Cal/Mol-Kelvin
 Total                  126.748             37.509            103.223
 Electronic               0.000              0.000              0.000
 Translational            0.889              2.981             40.637
 Rotational               0.889              2.981             29.834
 Vibrational            124.971             31.548             32.752
 Vibration     1          0.593              1.987              7.514
 Vibration     2          0.594              1.984              5.838
 Vibration     3          0.599              1.967              4.076
 Vibration     4          0.628              1.872              2.370
 Vibration     5          0.650              1.803              1.918
 Vibration     6          0.673              1.732              1.611
 Vibration     7          0.677              1.720              1.566
 Vibration     8          0.721              1.593              1.205
 Vibration     9          0.764              1.474              0.970
 Vibration    10          0.779              1.436              0.906
 Vibration    11          0.817              1.340              0.767
 Vibration    12          0.821              1.331              0.756
 Vibration    13          0.970              1.008              0.431

 Optimization completed.
    -- Stationary point found.
 Normal termination of Gaussian 16 at Thu Jul 11 19:50:56 2024.
 Gaussian 16:  EM64L-G16RevA.03 25-Dec-2016

 ----------------------------------------------------------------------
 # TD(NStates=10, Root=1) B3LYP/6-31G** SCRF=(Solvent=water) volume pop
 =NPA density=current Geom=AllCheck Guess=Read
 ----------------------------------------------------------------------

 Structure from the checkpoint file:  "ISKQADXMHQSTHK-UHFFFAOYSA-N_conf_3_2.chk"
 ----------------------------------
 ISKQADXMHQSTHK-UHFFFAOYSA-N_conf_3
 ----------------------------------
 Charge =  0 Multiplicity = 1

                         Standard orientation:
 ---------------------------------------------------------------------
 Center     Atomic      Atomic             Coordinates (Angstroms)
 Number     Number       Type             X           Y           Z
 ---------------------------------------------------------------------
      1          7           0       -3.517925   -0.000004    1.061780
      2          6           0       -2.936059    0.000002   -0.296053
      3          6           0       -1.418748    0.000002   -0.352775
      4          6           0       -0.697503   -1.202214   -0.357661
      5          6           0        0.697502   -1.202214   -0.357661
      6          6           0        1.418748    0.000000   -0.352775
      7          6           0        2.936059   -0.000000   -0.296053
      8          7           0        3.517925   -0.000002    1.061780
      9          6           0        0.697503    1.202216   -0.357657
     10          6           0       -0.697502    1.202216   -0.357657
     11          1           0       -3.157111    0.807854    1.568291
     12          1           0       -3.157113   -0.807867    1.568283
     13          1           0       -3.322909    0.880430   -0.821227
     14          1           0       -3.322910   -0.880421   -0.821235
     15          1           0       -1.234718   -2.148064   -0.370852
     16          1           0        1.234717   -2.148065   -0.370852
     17          1           0        3.322910    0.880426   -0.821230
     18          1           0        3.322909   -0.880425   -0.821232
     19          1           0        3.157112   -0.807863    1.568286
     20          1           0        3.157112    0.807857    1.568288
     21          1           0        1.234718    2.148066   -0.370845
     22          1           0       -1.234717    2.148067   -0.370845
 ---------------------------------------------------------------------

 SCF Done:  E(RB3LYP) =  -421.598115296     A.U. after    1 cycles

 Excitation energies and oscillator strengths:

 Excited State   1:      Singlet-A      5.1512 eV  240.69 nm  f=0.0127  <S**2>=0.000
      35 -> 38         0.35137
      37 -> 39         0.60911
 This state for optimization and/or second-order correction.
 Total Energy, E(TD-HF/TD-DFT) =  -421.408810860
 Copying the excited state density for this state as the 1-particle RhoCI density.

 Excited State   2:      Singlet-A      5.4004 eV  229.58 nm  f=0.3382  <S**2>=0.000
      34 -> 38         0.16348
      37 -> 38         0.67945

 Excited State   3:      Singlet-A      5.5947 eV  221.61 nm  f=0.0255  <S**2>=0.000
      36 -> 38         0.70348

 Excited State   4:      Singlet-A      5.6604 eV  219.04 nm  f=0.0000  <S**2>=0.000
      36 -> 39         0.70476

 Excited State   5:      Singlet-A      5.9058 eV  209.94 nm  f=0.0434  <S**2>=0.000
      34 -> 39         0.51026
      35 -> 38        -0.39566
      37 -> 39         0.28686

 Excited State   6:      Singlet-A      6.1852 eV  200.45 nm  f=0.0024  <S**2>=0.000
      34 -> 38         0.55451
      35 -> 39         0.42621

 Excited State   7:      Singlet-A      6.6493 eV  186.46 nm  f=0.9613  <S**2>=0.000
      34 -> 38        -0.39612
      35 -> 39         0.54870
      37 -> 38         0.16822

 Excited State   8:      Singlet-A      6.6847 eV  185.48 nm  f=0.6021  <S**2>=0.000
      34 -> 39         0.48158
      35 -> 38         0.46541
      37 -> 39        -0.21259

 Excited State   9:      Singlet-A      7.5091 eV  165.11 nm  f=0.0000  <S**2>=0.000
      33 -> 38         0.70061

 Excited State  10:      Singlet-A      7.5939 eV  163.27 nm  f=0.0049  <S**2>=0.000
      33 -> 39         0.69621

 The electronic state is 1-A.
 Alpha  occ. eigenvalues --  -14.31476 -14.31476 -10.20956 -10.20955 -10.19164
 Alpha  occ. eigenvalues --  -10.19164 -10.18814 -10.18809 -10.18758 -10.18755
 Alpha  occ. eigenvalues --   -0.88473  -0.87969  -0.84332  -0.75895  -0.74215
 Alpha  occ. eigenvalues --   -0.68062  -0.63237  -0.60639  -0.57103  -0.49813
 Alpha  occ. eigenvalues --   -0.49761  -0.48133  -0.45477  -0.44156  -0.42494
 Alpha  occ. eigenvalues --   -0.41998  -0.41469  -0.40566  -0.37204  -0.36610
 Alpha  occ. eigenvalues --   -0.35311  -0.34484  -0.33059  -0.26137  -0.25101
 Alpha  occ. eigenvalues --   -0.24227  -0.22586
 Alpha virt. eigenvalues --   -0.00558  -0.00372   0.09309   0.09480   0.11590
 Alpha virt. eigenvalues --    0.12441   0.13269   0.14608   0.15288   0.15548
 Alpha virt. eigenvalues --    0.17760   0.17965   0.18517   0.19337   0.21429

 Mulliken charges:
               1
     1  N   -0.568904
     2  C   -0.131808
     3  C    0.108981
     4  C   -0.165738
     5  C   -0.165738
     6  C    0.108981
     7  C   -0.131808
     8  N   -0.568904
     9  C   -0.165738
    10  C   -0.165738
    11  H    0.268042
    12  H    0.268042
    13  H    0.117809
    14  H    0.117809
    15  H    0.075752
    16  H    0.075752
    17  H    0.117809
    18  H    0.117809
    19  H    0.268042
    20  H    0.268042
    21  H    0.075752
    22  H    0.075752
 Sum of Mulliken charges =  -0.00000

 Dipole moment (field-independent basis, Debye):
    X=              0.0000    Y=             -0.0000    Z=              1.9683  Tot=              1.9683
 Quadrupole moment (field-independent basis, Debye-Ang):
   XX=            -68.2820   YY=            -55.7570   ZZ=            -58.5044
   XY=              0.0000   XZ=              0.0000   YZ=              0.0000

 Summary of Natural Population Analysis:

                                       Natural Population
                Natural  -----------------------------------------------
    Atom  No    Charge         Core      Valence    Rydberg      Total
 -----------------------------------------------------------------------
      N    1   -0.81882      1.99969     5.80524    0.01390     7.81882
      C    2   -0.29691      1.99928     4.28016    0.01747     6.29691
      C    3   -0.02011      1.99903     4.00479    0.01629     6.02011
      C    4   -0.29461      1.99906     4.27685    0.01870     6.29461
      C    5   -0.29461      1.99906     4.27685    0.01870     6.29461
      C    6   -0.02011      1.99903     4.00479    0.01629     6.02011
      C    7   -0.29691      1.99928     4.28016    0.01747     6.29691
      N    8   -0.81882      1.99969     5.80524    0.01390     7.81882
      C    9   -0.29461      1.99906     4.27685    0.01870     6.29461
      C   10   -0.29461      1.99906     4.27685    0.01870     6.29461
      H   11    0.39399      0.00000     0.60243    0.00358     0.60601
      H   12    0.39399      0.00000     0.60243    0.00358     0.60601
      H   13    0.23882      0.00000     0.75870    0.00248     0.76118
      H   14    0.23882      0.00000     0.75870    0.00248     0.76118
      H   15    0.22971      0.00000     0.76854    0.00175     0.77029
      H   16    0.22971      0.00000     0.76854    0.00175     0.77029
      H   17    0.23882      0.00000     0.75870    0.00248     0.76118
      H   18    0.23882      0.00000     0.75870    0.00248     0.76118
      H   19    0.39399      0.00000     0.60243    0.00358     0.60601
      H   20    0.39399      0.00000     0.60243    0.00358     0.60601
      H   21    0.22971      0.00000     0.76854    0.00175     0.77029
      H   22    0.22971      0.00000     0.76854    0.00175     0.77029
 =======================================================================
   * Total *    0.00000     19.99225    53.80644    0.20132    74.00000

 1\1\GINC-CN36\SP\RB3LYP TD-FC\6-31G(d,p)\C8H12N2\QDUEZ\11-Jul-2024\0\\
 # TD(NStates=10, Root=1) B3LYP/6-31G** SCRF=(Solvent=water) volume pop
 =NPA density=current Geom=AllCheck Guess=Read\\ISKQADXMHQSTHK-UHFFFAOY
 SA-N_conf_3\\0,1\N,0,-3.4605659643,0.909753392,0.7977582145\C,0,-2.881
 7564078,0.4355636763,-0.4759767672\C,0,-1.3912601166,0.1476154597,-0.4
 450724243\C,0,-0.9090748449,-1.1197168238,-0.0888329925\C,0,0.46099555
 14,-1.3702557551,-0.0102401122\C,0,1.39551842,-0.3619908675,-0.2852113
 872\C,0,2.8854011869,-0.6190517841,-0.1451489962\N,0,3.4495238894,-0.3

 Normal termination of Gaussian 16 at Thu Jul 11 20:12:41 2024.
