 Gaussian 16, Revision A.03,

 -------------------------------------------------------
 # opt=CalcFc B3LYP/6-31G** SCRF=(Solvent=water) scf=xqc
 -------------------------------------------------------

 ----------------------------------
 ISKQADXMHQSTHK-UHFFFAOYSA-N_conf_0
 ----------------------------------
 Symbolic Z-matrix:
 Charge =  0 Multiplicity = 1

 SCF Done:  E(RB3LYP) =  -421.594293639     A.U. after   11 cycles
 SCF Done:  E(RB3LYP) =  -421.597101914     A.U. after   10 cycles
 SCF Done:  E(RB3LYP) =  -421.597320602     A.U. after   10 cycles
 SCF Done:  E(RB3LYP) =  -421.597348181     A.U. after   10 cycles
 SCF Done:  E(RB3LYP) =  -421.597361053     A.U. after    9 cycles
 SCF Done:  E(RB3LYP) =  -421.597363599     A.U. after    9 cycles
 SCF Done:  E(RB3LYP) =  -421.597364249     A.U. after    8 cycles
 SCF Done:  E(RB3LYP) =  -421.597364327     A.U. after    7 cycles
 SCF Done:  E(RB3LYP) =  -421.597364318     A.U. after    7 cycles
 Optimization completed.
    -- Stationary point found.
 Normal termination of Gaussian 16 at Thu Jul 11 19:52:19 2024.

 ----------------------------------------------------------------------
 # freq B3LYP/6-31G** SCRF=(Solvent=water) volume NMR pop=NPA density=c
 urrent Geom=AllCheck Guess=Read
 ----------------------------------------------------------------------

 Structure from the checkpoint file:  "ISKQADXMHQSTHK-UHFFFAOYSA-N_conf_0_1.chk"
 ----------------------------------
 ISKQADXMHQSTHK-UHFFFAOYSA-N_conf_0
 ----------------------------------
 Charge =  0 Multiplicity = 1

 SCF Done:  E(RB3LYP) =  -421.597364318     A.U. after    1 cycles

      1  N    Isotropic =   233.5759   Anisotropy =    31.1048

      2  C    Isotropic =   143.1936   Anisotropy =    28.3066

      3  C    Isotropic =    54.2931   Anisotropy =   179.0971

      4  C    Isotropic =    69.6332   Anisotropy =   171.1095

      5  C    Isotropic =    68.8514   Anisotropy =   152.6997

      6  C    Isotropic =    52.5081   Anisotropy =   186.5723

      7  C    Isotropic =   142.1313   Anisotropy =    24.7297

      8  N    Isotropic =   217.2164   Anisotropy =    30.3955

      9  C    Isotropic =    69.4053   Anisotropy =   151.4397

     10  C    Isotropic =    68.6709   Anisotropy =   150.4260

     11  H    Isotropic =    31.2636   Anisotropy =    11.5585

     12  H    Isotropic =    30.8108   Anisotropy =    15.4728

     13  H    Isotropic =    27.8363   Anisotropy =     5.8759

     14  H    Isotropic =    27.8392   Anisotropy =     8.0450

     15  H    Isotropic =    23.7084   Anisotropy =     8.8435

     16  H    Isotropic =    24.3759   Anisotropy =     6.7697

     17  H    Isotropic =    28.2474   Anisotropy =     6.1718

     18  H    Isotropic =    28.2426   Anisotropy =     6.1253

     19  H    Isotropic =    31.1799   Anisotropy =    11.0783

     20  H    Isotropic =    31.2003   Anisotropy =    11.0979

     21  H    Isotropic =    24.4922   Anisotropy =     6.5686

     22  H    Isotropic =    24.5234   Anisotropy =     6.4257

  Exact polarizability: 166.314   0.725 133.747   9.645  -1.485  72.730
 Approx polarizability: 181.500   0.122 164.507  13.005  -2.590  85.111

                      1                      2                      3
                      A                      A                      A
 Frequencies --     32.0131                42.1805                92.1873
 Red. masses --      3.0274                 2.6133                 3.2793
 Frc consts  --      0.0018                 0.0027                 0.0164
 IR Inten    --      3.6889                 1.2017                 1.7630

                      4                      5                      6
                      A                      A                      A
 Frequencies --    172.4994               221.9850               270.9397
 Red. masses --      3.2303                 1.7593                 1.2987
 Frc consts  --      0.0566                 0.0511                 0.0562
 IR Inten    --      6.3531                27.3042                93.3725

                      7                      8                      9
                      A                      A                      A
 Frequencies --    278.7816               359.7192               371.2993
 Red. masses --      1.8665                 1.9141                 3.7187
 Frc consts  --      0.0855                 0.1459                 0.3021
 IR Inten    --     22.6464                20.2951                 3.9431

                     10                     11                     12
                      A                      A                      A
 Frequencies --    416.9720               420.5400               547.9554
 Red. masses --      2.7668                 2.9986                 3.5922
 Frc consts  --      0.2834                 0.3125                 0.6355
 IR Inten    --     11.8789                 2.2285                 8.7859

                     13                     14                     15
                      A                      A                      A
 Frequencies --    560.1596               653.2916               725.6202
 Red. masses --      2.9915                 6.7978                 2.9241
 Frc consts  --      0.5531                 1.7094                 0.9071
 IR Inten    --     24.0198                 0.1443                21.7919

                     16                     17                     18
                      A                      A                      A
 Frequencies --    743.8303               827.4507               843.5715
 Red. masses --      3.3251                 3.3273                 1.5804
 Frc consts  --      1.0839                 1.3422                 0.6626
 IR Inten    --     12.2572                46.2413                38.1348

                     19                     20                     21
                      A                      A                      A
 Frequencies --    862.5729               885.4893               887.1088
 Red. masses --      1.2566                 1.3580                 1.3149
 Frc consts  --      0.5509                 0.6273                 0.6097
 IR Inten    --      0.4381               128.2637                 2.6694

                     22                     23                     24
                      A                      A                      A
 Frequencies --    938.1094               969.4344               981.4115
 Red. masses --      2.4457                 1.2982                 1.3284
 Frc consts  --      1.2681                 0.7188                 0.7538
 IR Inten    --    306.6252                 4.5194                 3.0035

                     25                     26                     27
                      A                      A                      A
 Frequencies --   1006.9156              1035.2051              1062.6783
 Red. masses --      1.8138                 2.8940                 2.5085
 Frc consts  --      1.0835                 1.8273                 1.6691
 IR Inten    --     46.3895                 2.5091                11.4972

                     28                     29                     30
                      A                      A                      A
 Frequencies --   1093.0327              1123.9813              1165.8047
 Red. masses --      2.2391                 1.3484                 1.1734
 Frc consts  --      1.5761                 1.0037                 0.9396
 IR Inten    --     56.2395                 2.2942                 6.3700

                     31                     32                     33
                      A                      A                      A
 Frequencies --   1178.0865              1201.0747              1221.3609
 Red. masses --      1.2741                 1.1416                 4.3239
 Frc consts  --      1.0418                 0.9703                 3.8003
 IR Inten    --     10.3649                 0.3190                 8.7779

                     34                     35                     36
                      A                      A                      A
 Frequencies --   1233.1038              1303.5746              1346.5599
 Red. masses --      1.9843                 1.4780                 1.6099
 Frc consts  --      1.7777                 1.4798                 1.7198
 IR Inten    --      0.9813                 7.9729                 0.8742

                     37                     38                     39
                      A                      A                      A
 Frequencies --   1359.8300              1376.7586              1394.9525
 Red. masses --      2.1784                 1.2792                 1.2450
 Frc consts  --      2.3733                 1.4286                 1.4274
 IR Inten    --      2.9327                39.1799                 0.3431

                     40                     41                     42
                      A                      A                      A
 Frequencies --   1425.4651              1459.8438              1494.0703
 Red. masses --      1.5380                 2.3225                 1.0907
 Frc consts  --      1.8413                 2.9162                 1.4345
 IR Inten    --     39.9906                17.9465                 2.4105

                     43                     44                     45
                      A                      A                      A
 Frequencies --   1508.7894              1552.3284              1623.7167
 Red. masses --      1.0893                 2.4682                 5.8456
 Frc consts  --      1.4610                 3.5042                 9.0804
 IR Inten    --      1.9410                14.5885                 0.3399

                     46                     47                     48
                      A                      A                      A
 Frequencies --   1653.2071              1662.2066              1666.7778
 Red. masses --      1.1774                 1.0895                 4.2938
 Frc consts  --      1.8960                 1.7736                 7.0283
 IR Inten    --     33.5367                29.5368                 4.2240

                     49                     50                     51
                      A                      A                      A
 Frequencies --   2975.4974              3032.4168              3045.2830
 Red. masses --      1.0699                 1.0916                 1.0594
 Frc consts  --      5.5812                 5.9139                 5.7884
 IR Inten    --    113.4187                51.4143                72.6528

                     52                     53                     54
                      A                      A                      A
 Frequencies --   3090.2003              3164.4765              3167.1981
 Red. masses --      1.1063                 1.0867                 1.0891
 Frc consts  --      6.2244                 6.4117                 6.4368
 IR Inten    --     43.2960                19.9273                30.7426

                     55                     56                     57
                      A                      A                      A
 Frequencies --   3181.0440              3207.1024              3470.5642
 Red. masses --      1.0944                 1.0918                 1.0504
 Frc consts  --      6.5250                 6.6163                 7.4544
 IR Inten    --     38.2396                12.7885                 0.5894

                     58                     59                     60
                      A                      A                      A
 Frequencies --   3484.5082              3548.5147              3566.8073
 Red. masses --      1.0507                 1.0915                 1.0922
 Frc consts  --      7.5164                 8.0979                 8.1865
 IR Inten    --      1.4957                 0.0075                 0.0860

 - Thermochemistry -
 -------------------
 Temperature   298.150 Kelvin.  Pressure   1.00000 Atm.
 Atom     1 has atomic number  7 and mass  14.00307

 Molecular mass:   136.10005 amu.
 Principal axes and moments of inertia in atomic units:
                           1         2         3
     Eigenvalues --   460.366162786.238003062.19983
           X            0.99999   0.00316   0.00072
           Y           -0.00316   0.99999   0.00418
           Z           -0.00070  -0.00418   0.99999
 This molecule is an asymmetric top.
 Rotational symmetry number  1.
 Warning -- assumption of classical behavior for rotation
           may cause significant error
 Rotational temperatures (Kelvin)      0.18814     0.03109     0.02828
 Rotational constants (GHZ):           3.92023     0.64773     0.58936
 Zero-point vibrational energy     503556.4 (Joules/Mol)
                                  120.35287 (Kcal/Mol)
 Warning -- explicit consideration of  13 degrees of freedom as
           vibrations may cause significant error
 Vibrational temperatures:     46.06    60.69   132.64   248.19   319.39
          (Kelvin)            389.82   401.10   517.56   534.22   599.93
                              605.06   788.39   805.94   939.94  1044.01
                             1070.21  1190.52  1213.71  1241.05  1274.02
                             1276.35  1349.73  1394.80  1412.03  1448.73
                             1489.43  1528.96  1572.63  1617.16  1677.33
                             1695.00  1728.08  1757.27  1774.16  1875.55
                             1937.40  1956.49  1980.85  2007.03  2050.93
                             2100.39  2149.63  2170.81  2233.45  2336.17
                             2378.60  2391.54  2398.12  4281.08  4362.97
                             4381.48  4446.11  4552.98  4556.89  4576.81
                             4614.31  4993.37  5013.43  5105.52  5131.84

 Zero-point correction=                           0.191795 (Hartree/Particle)
 Thermal correction to Energy=                    0.201869
 Thermal correction to Enthalpy=                  0.202813
 Thermal correction to Gibbs Free Energy=         0.155197
 Sum of electronic and zero-point Energies=           -421.405570
 Sum of electronic and thermal Energies=              -421.395495
 Sum of electronic and thermal Enthalpies=            -421.394551
 Sum of electronic and thermal Free Energies=         -421.442168

                     E (Thermal)             CV                S
                      KCal/Mol        Cal/Mol-Kelvin    Cal/Mol-Kelvin
 Total                  126.675             37.484            100.218
 Electronic               0.000              0.000              0.000
 Translational            0.889              2.981             40.637
 Rotational               0.889              2.981             29.753
 Vibrational            124.897             31.522             29.828
 Vibration     1          0.594              1.983              5.701
 Vibration     2          0.595              1.980              5.154
 Vibration     3          0.602              1.955              3.613
 Vibration     4          0.626              1.876              2.408
 Vibration     5          0.648              1.808              1.943
 Vibration     6          0.675              1.727              1.590
 Vibration     7          0.679              1.713              1.541
 Vibration     8          0.734              1.555              1.123
 Vibration     9          0.743              1.531              1.074
 Vibration    10          0.780              1.433              0.902
 Vibration    11          0.783              1.426              0.890
 Vibration    12          0.903              1.144              0.548
 Vibration    13          0.916              1.118              0.524

 Optimization completed.
    -- Stationary point found.
 Normal termination of Gaussian 16 at Thu Jul 11 20:15:03 2024.
 Gaussian 16:  EM64L-G16RevA.03 25-Dec-2016

 ----------------------------------------------------------------------
 # TD(NStates=10, Root=1) B3LYP/6-31G** SCRF=(Solvent=water) volume pop
 =NPA density=current Geom=AllCheck Guess=Read
 ----------------------------------------------------------------------

 Structure from the checkpoint file:  "ISKQADXMHQSTHK-UHFFFAOYSA-N_conf_0_2.chk"
 ----------------------------------
 ISKQADXMHQSTHK-UHFFFAOYSA-N_conf_0
 ----------------------------------
 Charge =  0 Multiplicity = 1

                         Standard orientation:
 ---------------------------------------------------------------------
 Center     Atomic      Atomic             Coordinates (Angstroms)
 Number     Number       Type             X           Y           Z
 ---------------------------------------------------------------------
      1          7           0        3.661558   -0.658333   -0.180874
      2          6           0        2.857496    0.410532    0.428970
      3          6           0        1.376500    0.248854    0.140298
      4          6           0        0.778459   -1.017753    0.090858
      5          6           0       -0.589782   -1.152362   -0.142992
      6          6           0       -1.407704   -0.028797   -0.330605
      7          6           0       -2.905992   -0.176031   -0.527142
      8          7           0       -3.711309   -0.169794    0.711608
      9          6           0       -0.806096    1.235931   -0.288024
     10          6           0        0.563955    1.371977   -0.059323
     11          1           0        3.644140   -0.549998   -1.193513
     12          1           0        4.634108   -0.535524    0.093135
     13          1           0        3.018518    0.355790    1.514572
     14          1           0        3.163467    1.425771    0.128627
     15          1           0        1.400941   -1.896970    0.221912
     16          1           0       -1.030690   -2.146198   -0.184786
     17          1           0       -3.274270    0.636143   -1.163969
     18          1           0       -3.116813   -1.114027   -1.052950
     19          1           0       -3.371463   -0.912862    1.321341
     20          1           0       -3.516165    0.692737    1.218949
     21          1           0       -1.413980    2.123900   -0.447374
     22          1           0        1.009445    2.364022   -0.043325
 ---------------------------------------------------------------------

 SCF Done:  E(RB3LYP) =  -421.597364318     A.U. after    1 cycles

 Excitation energies and oscillator strengths:

 Excited State   1:      Singlet-A      5.1976 eV  238.54 nm  f=0.0105  <S**2>=0.000
      35 -> 38         0.35439
      37 -> 38         0.12384
      37 -> 39         0.58218
 This state for optimization and/or second-order correction.
 Total Energy, E(TD-HF/TD-DFT) =  -421.406355305
 Copying the excited state density for this state as the 1-particle RhoCI density.

 Excited State   2:      Singlet-A      5.4681 eV  226.74 nm  f=0.2472  <S**2>=0.000
      34 -> 38         0.19297
      36 -> 38        -0.11879
      37 -> 38         0.64866
      37 -> 39        -0.11982

 Excited State   3:      Singlet-A      5.6078 eV  221.09 nm  f=0.0328  <S**2>=0.000
      36 -> 38         0.68480

 Excited State   4:      Singlet-A      5.7107 eV  217.11 nm  f=0.0047  <S**2>=0.000
      36 -> 39         0.69943

 Excited State   5:      Singlet-A      5.8755 eV  211.02 nm  f=0.0304  <S**2>=0.000
      34 -> 38         0.10430
      34 -> 39         0.54007
      35 -> 38        -0.34060
      37 -> 39         0.27757

 Excited State   6:      Singlet-A      6.1223 eV  202.51 nm  f=0.0158  <S**2>=0.000
      34 -> 38         0.57994
      34 -> 39        -0.10864
      35 -> 39         0.35576
      37 -> 38        -0.12341

 Excited State   7:      Singlet-A      6.6208 eV  187.27 nm  f=1.0187  <S**2>=0.000
      34 -> 38        -0.30415
      35 -> 38         0.11445
      35 -> 39         0.57588
      37 -> 38         0.17892

 Excited State   8:      Singlet-A      6.6428 eV  186.64 nm  f=0.6057  <S**2>=0.000
      34 -> 38         0.10743
      34 -> 39         0.41537
      35 -> 38         0.47774
      35 -> 39        -0.10741
      37 -> 39        -0.24553

 Excited State   9:      Singlet-A      7.5706 eV  163.77 nm  f=0.0011  <S**2>=0.000
      33 -> 38         0.67212

 Excited State  10:      Singlet-A      7.6285 eV  162.53 nm  f=0.0065  <S**2>=0.000
      33 -> 38         0.15777
      34 -> 40         0.11803
      36 -> 40        -0.25683
      36 -> 41         0.32580
      37 -> 40         0.51781

 The electronic state is 1-A.
 Alpha  occ. eigenvalues --  -14.31421 -14.31395 -10.21057 -10.20880 -10.19176
 Alpha  occ. eigenvalues --  -10.18962 -10.18634 -10.18576 -10.18573 -10.18298
 Alpha  occ. eigenvalues --   -0.88425  -0.87950  -0.84216  -0.75884  -0.73959
 Alpha  occ. eigenvalues --   -0.68064  -0.63023  -0.60351  -0.56731  -0.50240
 Alpha  occ. eigenvalues --   -0.49181  -0.47427  -0.45969  -0.44621  -0.42021
 Alpha  occ. eigenvalues --   -0.41687  -0.41123  -0.40286  -0.39170  -0.36063
 Alpha  occ. eigenvalues --   -0.34691  -0.33929  -0.33070  -0.25513  -0.24909
 Alpha  occ. eigenvalues --   -0.24014  -0.22657
 Alpha virt. eigenvalues --   -0.00307  -0.00119   0.09140   0.09711   0.11564
 Alpha virt. eigenvalues --    0.12780   0.13649   0.14325   0.15532   0.16412
 Alpha virt. eigenvalues --    0.17528   0.18277   0.19040   0.19945   0.21118

 Mulliken charges:
               1
     1  N   -0.614956
     2  C   -0.114940
     3  C    0.110689
     4  C   -0.147156
     5  C   -0.164591
     6  C    0.107263
     7  C   -0.132617
     8  N   -0.564998
     9  C   -0.160796
    10  C   -0.171051
    11  H    0.260779
    12  H    0.262481
    13  H    0.134453
    14  H    0.108150
    15  H    0.079263
    16  H    0.077397
    17  H    0.118483
    18  H    0.118426
    19  H    0.269408
    20  H    0.269265
    21  H    0.078689
    22  H    0.076359
 Sum of Mulliken charges =   0.00000

 Dipole moment (field-independent basis, Debye):
    X=              1.5251    Y=              1.3096    Z=              0.5603  Tot=              2.0868
 Quadrupole moment (field-independent basis, Debye-Ang):
   XX=            -50.6392   YY=            -59.5235   ZZ=            -58.8186
   XY=              3.3626   XZ=             -3.0894   YZ=              0.3161

 Summary of Natural Population Analysis:

                                       Natural Population
                Natural  -----------------------------------------------
    Atom  No    Charge         Core      Valence    Rydberg      Total
 -----------------------------------------------------------------------
      N    1   -0.89589      1.99965     5.88178    0.01446     7.89589
      C    2   -0.28473      1.99928     4.27076    0.01469     6.28473
      C    3   -0.00255      1.99904     3.98630    0.01721     6.00255
      C    4   -0.28762      1.99907     4.26981    0.01874     6.28762
      C    5   -0.28624      1.99907     4.26865    0.01852     6.28624
      C    6   -0.02692      1.99903     4.01148    0.01641     6.02692
      C    7   -0.29806      1.99928     4.28126    0.01751     6.29806
      N    8   -0.81262      1.99968     5.79911    0.01383     7.81262
      C    9   -0.28300      1.99907     4.26534    0.01860     6.28300
      C   10   -0.28934      1.99907     4.27192    0.01835     6.28934
      H   11    0.39267      0.00000     0.60410    0.00322     0.60733
      H   12    0.39729      0.00000     0.59981    0.00290     0.60271
      H   13    0.25220      0.00000     0.74516    0.00265     0.74780
      H   14    0.22825      0.00000     0.76899    0.00276     0.77175
      H   15    0.23845      0.00000     0.75933    0.00222     0.76155
      H   16    0.22986      0.00000     0.76839    0.00174     0.77014
      H   17    0.23914      0.00000     0.75838    0.00248     0.76086
      H   18    0.23912      0.00000     0.75838    0.00250     0.76088
      H   19    0.39463      0.00000     0.60180    0.00357     0.60537
      H   20    0.39456      0.00000     0.60185    0.00360     0.60544
      H   21    0.23074      0.00000     0.76750    0.00176     0.76926
      H   22    0.23007      0.00000     0.76818    0.00175     0.76993
 =======================================================================
   * Total *   -0.00000     19.99225    53.80828    0.19947    74.00000

 1\1\GINC-CN33\SP\RB3LYP TD-FC\6-31G(d,p)\C8H12N2\QDUEZ\11-Jul-2024\0\\
 # TD(NStates=10, Root=1) B3LYP/6-31G** SCRF=(Solvent=water) volume pop
 =NPA density=current Geom=AllCheck Guess=Read\\ISKQADXMHQSTHK-UHFFFAOY
 SA-N_conf_0\\0,1\N,0,3.6306390389,-0.4427805748,-0.4600715055\C,0,2.78
 77586207,-0.0616428091,0.6823749816\C,0,1.3229157343,0.0487876486,0.30
 17699683\C,0,0.742936032,-0.8297211927,-0.6235607234\C,0,-0.6120016899
 ,-0.739346411,-0.9411551143\C,0,-1.4343886984,0.2265742364,-0.34343695
 53\C,0,-2.9207241499,0.2850042751,-0.6476834043\N,0,-3.7796456374,-0.5

 Normal termination of Gaussian 16 at Thu Jul 11 20:45:46 2024.
