 Gaussian 16, Revision A.03,

 -------------------------------------------------------
 # opt=CalcFc B3LYP/6-31G** SCRF=(Solvent=water) scf=xqc
 -------------------------------------------------------

 ----------------------------------
 NFCPRRWCTNLGSN-UHFFFAOYSA-N_conf_0
 ----------------------------------
 Symbolic Z-matrix:
 Charge =  0 Multiplicity = 1

 SCF Done:  E(RB3LYP) =  -574.035275700     A.U. after   12 cycles
 SCF Done:  E(RB3LYP) =  -574.038539388     A.U. after   11 cycles
 SCF Done:  E(RB3LYP) =  -574.038698106     A.U. after   10 cycles
 SCF Done:  E(RB3LYP) =  -574.038701370     A.U. after    8 cycles
 SCF Done:  E(RB3LYP) =  -574.038701443     A.U. after    7 cycles
 SCF Done:  E(RB3LYP) =  -574.038701484     A.U. after    6 cycles
 Optimization completed.
    -- Stationary point found.
 Normal termination of Gaussian 16 at Thu Jul 11 20:39:31 2024.

 ----------------------------------------------------------------------
 # freq B3LYP/6-31G** SCRF=(Solvent=water) volume NMR pop=NPA density=c
 urrent Geom=AllCheck Guess=Read
 ----------------------------------------------------------------------

 Structure from the checkpoint file:  "NFCPRRWCTNLGSN-UHFFFAOYSA-N_conf_0_1.chk"
 ----------------------------------
 NFCPRRWCTNLGSN-UHFFFAOYSA-N_conf_0
 ----------------------------------
 Charge =  0 Multiplicity = 1

 SCF Done:  E(RB3LYP) =  -574.038701484     A.U. after    1 cycles

      1  N    Isotropic =   205.2128   Anisotropy =    41.1078

      2  C    Isotropic =    57.8358   Anisotropy =   147.7330

      3  C    Isotropic =    80.9759   Anisotropy =   129.5162

      4  C    Isotropic =    74.4470   Anisotropy =   158.6520

      5  C    Isotropic =    78.5928   Anisotropy =   151.5966

      6  C    Isotropic =    80.7198   Anisotropy =   156.3608

      7  C    Isotropic =    66.6544   Anisotropy =   122.2827

      8  N    Isotropic =   167.7801   Anisotropy =    44.0622

      9  C    Isotropic =    54.0798   Anisotropy =   148.0633

     10  C    Isotropic =    79.9705   Anisotropy =   130.2626

     11  C    Isotropic =    67.0538   Anisotropy =   167.9590

     12  C    Isotropic =    78.1373   Anisotropy =   156.1623

     13  C    Isotropic =    67.9282   Anisotropy =   167.6876

     14  C    Isotropic =    82.9352   Anisotropy =   149.9987

     15  H    Isotropic =    28.6222   Anisotropy =     9.2680

     16  H    Isotropic =    28.6646   Anisotropy =    13.4141

     17  H    Isotropic =    24.9389   Anisotropy =     5.6790

     18  H    Isotropic =    24.7872   Anisotropy =     3.3964

     19  H    Isotropic =    24.9344   Anisotropy =     4.1616

     20  H    Isotropic =    24.2625   Anisotropy =     9.6294

     21  H    Isotropic =    27.2699   Anisotropy =     8.6274

     22  H    Isotropic =    24.9846   Anisotropy =     7.0041

     23  H    Isotropic =    24.3493   Anisotropy =     4.3851

     24  H    Isotropic =    24.8406   Anisotropy =     3.2356

     25  H    Isotropic =    24.3964   Anisotropy =     4.8646

     26  H    Isotropic =    24.4477   Anisotropy =     9.8511

  Exact polarizability: 284.790   1.467 192.594 -10.958 -10.866  90.323
 Approx polarizability: 312.582   0.126 243.308 -14.070 -15.328 113.790

                      1                      2                      3
                      A                      A                      A
 Frequencies --     37.7370                41.7226                94.1942
 Red. masses --      4.0065                 4.1769                 4.3501
 Frc consts  --      0.0034                 0.0043                 0.0227
 IR Inten    --      0.2002                 1.7297                 0.2366

                      4                      5                      6
                      A                      A                      A
 Frequencies --    188.9447               212.6233               249.6797
 Red. masses --      4.0067                 4.4056                 3.8530
 Frc consts  --      0.0843                 0.1173                 0.1415
 IR Inten    --      1.1928                 1.1567                 3.0730

                      7                      8                      9
                      A                      A                      A
 Frequencies --    274.6823               294.3959               353.0741
 Red. masses --      2.6213                 1.4587                 5.0258
 Frc consts  --      0.1165                 0.0745                 0.3691
 IR Inten    --     26.9260                31.1988                14.2459

                     10                     11                     12
                      A                      A                      A
 Frequencies --    421.0894               447.2409               458.2232
 Red. masses --      3.1141                 3.5430                 2.9701
 Frc consts  --      0.3253                 0.4175                 0.3674
 IR Inten    --      2.4442                 4.6455                37.8518

                     13                     14                     15
                      A                      A                      A
 Frequencies --    507.2214               529.2502               552.6650
 Red. masses --      2.4548                 2.0351                 2.2775
 Frc consts  --      0.3721                 0.3359                 0.4098
 IR Inten    --     64.5734                34.9763                76.6655

                     16                     17                     18
                      A                      A                      A
 Frequencies --    570.5331               595.4751               630.7520
 Red. masses --      4.2568                 6.0146                 5.6817
 Frc consts  --      0.8164                 1.2566                 1.3318
 IR Inten    --      7.3382                 2.6411                 3.7704

                     19                     20                     21
                      A                      A                      A
 Frequencies --    650.7018               701.8535               707.4708
 Red. masses --      4.7893                 1.7769                 2.2879
 Frc consts  --      1.1948                 0.5157                 0.6747
 IR Inten    --      5.4971               259.9657                29.1817

                     22                     23                     24
                      A                      A                      A
 Frequencies --    738.6499               759.7343               765.4303
 Red. masses --      2.4461                 1.6228                 1.4340
 Frc consts  --      0.7863                 0.5519                 0.4950
 IR Inten    --    124.8954               112.7399               137.4126

                     25                     26                     27
                      A                      A                      A
 Frequencies --    826.7316               834.8050               841.6628
 Red. masses --      2.9463                 3.0768                 1.5174
 Frc consts  --      1.1865                 1.2633                 0.6333
 IR Inten    --     10.0008                12.6865                 0.2749

                     28                     29                     30
                      A                      A                      A
 Frequencies --    859.4913               896.6326               902.0888
 Red. masses --      1.4467                 1.5979                 3.4213
 Frc consts  --      0.6297                 0.7569                 1.6403
 IR Inten    --      9.3966                12.7065                12.3732

                     31                     32                     33
                      A                      A                      A
 Frequencies --    932.3420               963.4036               970.3297
 Red. masses --      1.3479                 1.2407                 1.2991
 Frc consts  --      0.6904                 0.6785                 0.7206
 IR Inten    --      5.1222                 0.2780                 0.2009

                     34                     35                     36
                      A                      A                      A
 Frequencies --    989.4644              1007.2046              1052.9902
 Red. masses --      1.2267                 5.8476                 2.1593
 Frc consts  --      0.7076                 3.4951                 1.4106
 IR Inten    --      1.0884                 7.4866                 8.4768

                     37                     38                     39
                      A                      A                      A
 Frequencies --   1061.8150              1089.7792              1111.3669
 Red. masses --      2.0849                 1.7564                 1.5469
 Frc consts  --      1.3850                 1.2290                 1.1257
 IR Inten    --      6.6296                 7.8540                11.4188

                     40                     41                     42
                      A                      A                      A
 Frequencies --   1165.9031              1179.4463              1180.6703
 Red. masses --      1.2864                 1.0856                 1.0842
 Frc consts  --      1.0303                 0.8898                 0.8905
 IR Inten    --     40.3613                 2.7434                 3.5223

                     43                     44                     45
                      A                      A                      A
 Frequencies --   1203.4078              1230.9167              1266.5683
 Red. masses --      1.1288                 2.8680                 2.2137
 Frc consts  --      0.9632                 2.5603                 2.0923
 IR Inten    --     17.2219                32.6368                79.6612

                     46                     47                     48
                      A                      A                      A
 Frequencies --   1312.9542              1335.1709              1347.8781
 Red. masses --      3.1823                 1.7442                 2.4575
 Frc consts  --      3.2322                 1.8320                 2.6305
 IR Inten    --    105.8855               161.5638               143.1636

                     49                     50                     51
                      A                      A                      A
 Frequencies --   1366.5061              1382.0888              1463.1374
 Red. masses --      2.1351                 3.7096                 1.9285
 Frc consts  --      2.3490                 4.1749                 2.4325
 IR Inten    --     11.8866                33.5586                88.9889

                     52                     53                     54
                      A                      A                      A
 Frequencies --   1504.1769              1530.6094              1537.0072
 Red. masses --      2.5233                 2.0737                 2.3584
 Frc consts  --      3.3637                 2.8623                 3.2826
 IR Inten    --     21.5595                77.9860               159.1155

                     55                     56                     57
                      A                      A                      A
 Frequencies --   1553.6877              1632.9449              1635.3702
 Red. masses --      2.3855                 2.1249                 4.6576
 Frc consts  --      3.3928                 3.3384                 7.3391
 IR Inten    --    414.6892                21.2297                14.1310

                     58                     59                     60
                      A                      A                      A
 Frequencies --   1640.8569              1650.4668              1668.3656
 Red. masses --      3.2904                 4.1226                 2.6781
 Frc consts  --      5.2196                 6.6166                 4.3919
 IR Inten    --     91.1269               265.9285                73.0351

                     61                     62                     63
                      A                      A                      A
 Frequencies --   3173.8458              3174.1482              3182.7947
 Red. masses --      1.0875                 1.0867                 1.0873
 Frc consts  --      6.4543                 6.4510                 6.4897
 IR Inten    --     22.1150                16.9235                 2.1273

                     64                     65                     66
                      A                      A                      A
 Frequencies --   3187.8742              3191.0057              3201.4617
 Red. masses --      1.0884                 1.0927                 1.0938
 Frc consts  --      6.5167                 6.5555                 6.6050
 IR Inten    --     13.8055                44.1814                57.6852

                     67                     68                     69
                      A                      A                      A
 Frequencies --   3206.7541              3212.9589              3217.7695
 Red. masses --      1.0956                 1.0955                 1.0935
 Frc consts  --      6.6382                 6.6632                 6.6709
 IR Inten    --     37.3047                 8.8868                12.1151

                     70                     71                     72
                      A                      A                      A
 Frequencies --   3527.5090              3576.1029              3633.6840
 Red. masses --      1.0499                 1.0756                 1.0958
 Frc consts  --      7.6969                 8.1046                 8.5247
 IR Inten    --     22.0365                53.7983                31.5412

 - Thermochemistry -
 -------------------
 Temperature   298.150 Kelvin.  Pressure   1.00000 Atm.
 Atom     1 has atomic number  7 and mass  14.00307

 Molecular mass:   184.10005 amu.
 Principal axes and moments of inertia in atomic units:
                           1         2         3
     Eigenvalues --  1072.942664694.734445443.35853
           X            0.99999  -0.00165  -0.00316
           Y            0.00163   0.99999  -0.00372
           Z            0.00316   0.00371   0.99999
 This molecule is an asymmetric top.
 Rotational symmetry number  1.
 Warning -- assumption of classical behavior for rotation
           may cause significant error
 Rotational temperatures (Kelvin)      0.08073     0.01845     0.01591
 Rotational constants (GHZ):           1.68205     0.38442     0.33155
 Zero-point vibrational energy     564622.4 (Joules/Mol)
                                  134.94799 (Kcal/Mol)
 Warning -- explicit consideration of  17 degrees of freedom as
           vibrations may cause significant error
 Vibrational temperatures:     54.30    60.03   135.52   271.85   305.92
          (Kelvin)            359.23   395.21   423.57   507.99   605.85
                              643.48   659.28   729.78   761.47   795.16
                              820.87   856.76   907.51   936.21  1009.81
                             1017.89  1062.75  1093.09  1101.28  1189.48
                             1201.10  1210.96  1236.62  1290.05  1297.90
                             1341.43  1386.12  1396.09  1423.62  1449.14
                             1515.02  1527.71  1567.95  1599.01  1677.47
                             1696.96  1698.72  1731.44  1771.01  1822.31
                             1889.05  1921.01  1939.30  1966.10  1988.52
                             2105.13  2164.18  2202.21  2211.41  2235.41
                             2349.44  2352.93  2360.83  2374.65  2400.41
                             4566.46  4566.89  4579.33  4586.64  4591.15
                             4606.19  4613.80  4622.73  4629.65  5075.30
                             5145.21  5228.06

 Zero-point correction=                           0.215053 (Hartree/Particle)
 Thermal correction to Energy=                    0.226603
 Thermal correction to Enthalpy=                  0.227548
 Thermal correction to Gibbs Free Energy=         0.176690
 Sum of electronic and zero-point Energies=           -573.823648
 Sum of electronic and thermal Energies=              -573.812098
 Sum of electronic and thermal Enthalpies=            -573.811154
 Sum of electronic and thermal Free Energies=         -573.862011

                     E (Thermal)             CV                S
                      KCal/Mol        Cal/Mol-Kelvin    Cal/Mol-Kelvin
 Total                  142.196             46.850            107.038
 Electronic               0.000              0.000              0.000
 Translational            0.889              2.981             41.537
 Rotational               0.889              2.981             31.684
 Vibrational            140.418             40.889             33.817
 Vibration     1          0.594              1.982              5.374
 Vibration     2          0.594              1.981              5.176
 Vibration     3          0.603              1.953              3.571
 Vibration     4          0.633              1.855              2.238
 Vibration     5          0.644              1.822              2.021
 Vibration     6          0.662              1.763              1.733
 Vibration     7          0.677              1.720              1.567
 Vibration     8          0.689              1.684              1.449
 Vibration     9          0.729              1.569              1.152
 Vibration    10          0.784              1.424              0.888
 Vibration    11          0.806              1.367              0.804
 Vibration    12          0.816              1.343              0.771
 Vibration    13          0.862              1.234              0.640
 Vibration    14          0.884              1.185              0.589
 Vibration    15          0.908              1.134              0.539
 Vibration    16          0.927              1.095              0.503
 Vibration    17          0.953              1.041              0.458

 Optimization completed.
    -- Stationary point found.
 Normal termination of Gaussian 16 at Thu Jul 11 21:04:57 2024.
 Gaussian 16:  EM64L-G16RevA.03 25-Dec-2016

 ----------------------------------------------------------------------
 # TD(NStates=10, Root=1) B3LYP/6-31G** SCRF=(Solvent=water) volume pop
 =NPA density=current Geom=AllCheck Guess=Read
 ----------------------------------------------------------------------

 Structure from the checkpoint file:  "NFCPRRWCTNLGSN-UHFFFAOYSA-N_conf_0_2.chk"
 ----------------------------------
 NFCPRRWCTNLGSN-UHFFFAOYSA-N_conf_0
 ----------------------------------
 Charge =  0 Multiplicity = 1

                         Standard orientation:
 ---------------------------------------------------------------------
 Center     Atomic      Atomic             Coordinates (Angstroms)
 Number     Number       Type             X           Y           Z
 ---------------------------------------------------------------------
      1          7           0       -2.168958    2.219273    0.474513
      2          6           0       -2.272638    0.848591    0.197364
      3          6           0       -3.506246    0.186016    0.181565
      4          6           0       -3.590543   -1.167831   -0.148253
      5          6           0       -2.434518   -1.878970   -0.470674
      6          6           0       -1.199009   -1.227187   -0.480020
      7          6           0       -1.099301    0.127625   -0.144053
      8          7           0        0.109317    0.857207   -0.165688
      9          6           0        1.409237    0.354525   -0.066401
     10          6           0        2.457523    1.041514   -0.708091
     11          6           0        3.775776    0.612199   -0.572926
     12          6           0        4.083244   -0.516550    0.191274
     13          6           0        3.046233   -1.200697    0.830551
     14          6           0        1.724027   -0.774292    0.714369
     15          1           0       -1.341610    2.453136    1.014470
     16          1           0       -2.996150    2.604855    0.914408
     17          1           0       -4.403116    0.741223    0.444796
     18          1           0       -4.557278   -1.662376   -0.142105
     19          1           0       -2.488240   -2.931670   -0.730555
     20          1           0       -0.302996   -1.770094   -0.759923
     21          1           0        0.036739    1.757257   -0.625115
     22          1           0        2.228860    1.914441   -1.314363
     23          1           0        4.565906    1.161242   -1.077466
     24          1           0        5.109937   -0.854876    0.288200
     25          1           0        3.265523   -2.074210    1.438354
     26          1           0        0.937198   -1.303944    1.239293
 ---------------------------------------------------------------------

 SCF Done:  E(RB3LYP) =  -574.038701484     A.U. after    1 cycles

 Excitation energies and oscillator strengths:

 Excited State   1:      Singlet-A      4.1205 eV  300.90 nm  f=0.4653  <S**2>=0.000
      49 -> 50         0.69695
 This state for optimization and/or second-order correction.
 Total Energy, E(TD-HF/TD-DFT) =  -573.887276743
 Copying the excited state density for this state as the 1-particle RhoCI density.

 Excited State   2:      Singlet-A      4.3283 eV  286.45 nm  f=0.1499  <S**2>=0.000
      49 -> 51         0.69247

 Excited State   3:      Singlet-A      4.6800 eV  264.92 nm  f=0.1951  <S**2>=0.000
      48 -> 50        -0.26323
      48 -> 53         0.10065
      49 -> 52         0.62820

 Excited State   4:      Singlet-A      5.1136 eV  242.46 nm  f=0.0582  <S**2>=0.000
      48 -> 50         0.57075
      49 -> 52         0.23410
      49 -> 53         0.32216

 Excited State   5:      Singlet-A      5.2692 eV  235.30 nm  f=0.0215  <S**2>=0.000
      47 -> 50        -0.12331
      48 -> 50         0.10996
      48 -> 51         0.60770
      49 -> 53        -0.26571

 Excited State   6:      Singlet-A      5.3412 eV  232.13 nm  f=0.0514  <S**2>=0.000
      46 -> 52        -0.13005
      47 -> 50        -0.10037
      48 -> 50        -0.25190
      48 -> 51         0.27391
      49 -> 52        -0.15297
      49 -> 53         0.54028

 Excited State   7:      Singlet-A      5.7808 eV  214.47 nm  f=0.3137  <S**2>=0.000
      47 -> 50        -0.16072
      48 -> 52         0.65692

 Excited State   8:      Singlet-A      5.8677 eV  211.30 nm  f=0.0173  <S**2>=0.000
      46 -> 51         0.40189
      47 -> 50         0.48433
      48 -> 51         0.16909
      48 -> 52         0.16185
      48 -> 53         0.13822

 Excited State   9:      Singlet-A      5.9856 eV  207.14 nm  f=0.0237  <S**2>=0.000
      46 -> 50         0.30366
      46 -> 51        -0.16904
      46 -> 52        -0.12274
      48 -> 53         0.58159

 Excited State  10:      Singlet-A      6.2559 eV  198.19 nm  f=0.2814  <S**2>=0.000
      46 -> 50         0.51429
      46 -> 51         0.13426
      47 -> 51        -0.36013
      47 -> 52         0.11824
      48 -> 53        -0.16367

 The electronic state is 1-A.
 Alpha  occ. eigenvalues --  -14.35737 -14.33816 -10.23304 -10.22562 -10.22516
 Alpha  occ. eigenvalues --  -10.18971 -10.18953 -10.18592 -10.18512 -10.18491
 Alpha  occ. eigenvalues --  -10.18348 -10.18294 -10.18124 -10.18045  -0.95281
 Alpha  occ. eigenvalues --   -0.90705  -0.84391  -0.82792  -0.75223  -0.74300
 Alpha  occ. eigenvalues --   -0.72943  -0.70725  -0.62461  -0.61584  -0.59416
 Alpha  occ. eigenvalues --   -0.57948  -0.52856  -0.52768  -0.50705  -0.48804
 Alpha  occ. eigenvalues --   -0.47990  -0.44820  -0.43630  -0.43069  -0.42457
 Alpha  occ. eigenvalues --   -0.42116  -0.41543  -0.39463  -0.37243  -0.36197
 Alpha  occ. eigenvalues --   -0.35747  -0.34473  -0.33898  -0.31747  -0.30775
 Alpha  occ. eigenvalues --   -0.25267  -0.25074  -0.21805  -0.18533
 Alpha virt. eigenvalues --   -0.00767  -0.00127   0.01249   0.02711   0.08676
 Alpha virt. eigenvalues --    0.09907   0.10482   0.12504   0.14255   0.15584
 Alpha virt. eigenvalues --    0.15749   0.16370   0.17205   0.17311   0.18411

 Mulliken charges:
               1
     1  N   -0.651533
     2  C    0.251736
     3  C   -0.167368
     4  C   -0.126499
     5  C   -0.111893
     6  C   -0.160118
     7  C    0.244691
     8  N   -0.629617
     9  C    0.268911
    10  C   -0.127552
    11  C   -0.131244
    12  C   -0.118139
    13  C   -0.110276
    14  C   -0.139852
    15  H    0.293228
    16  H    0.296419
    17  H    0.084121
    18  H    0.085010
    19  H    0.092433
    20  H    0.088278
    21  H    0.301426
    22  H    0.102683
    23  H    0.089411
    24  H    0.087110
    25  H    0.094552
    26  H    0.094083
 Sum of Mulliken charges =  -0.00000

 Dipole moment (field-independent basis, Debye):
    X=             -1.3965    Y=              3.9369    Z=              1.1110  Tot=              4.3225
 Quadrupole moment (field-independent basis, Debye-Ang):
   XX=            -80.2319   YY=            -70.4214   ZZ=            -83.1657
   XY=             -5.3024   XZ=             -5.5986   YZ=              1.4994

 Summary of Natural Population Analysis:

                                       Natural Population
                Natural  -----------------------------------------------
    Atom  No    Charge         Core      Valence    Rydberg      Total
 -----------------------------------------------------------------------
      N    1   -0.81013      1.99950     5.79935    0.01128     7.81013
      C    2    0.19832      1.99895     3.78530    0.01744     5.80168
      C    3   -0.35464      1.99905     4.33953    0.01605     6.35464
      C    4   -0.27147      1.99912     4.25542    0.01693     6.27147
      C    5   -0.22865      1.99911     4.21515    0.01439     6.22865
      C    6   -0.35560      1.99907     4.33842    0.01811     6.35560
      C    7    0.07017      1.99888     3.91163    0.01932     5.92983
      N    8   -0.46631      1.99937     5.45611    0.01083     7.46631
      C    9    0.09264      1.99897     3.88829    0.02009     5.90736
      C   10   -0.23106      1.99907     4.21915    0.01285     6.23106
      C   11   -0.28809      1.99913     4.27307    0.01589     6.28809
      C   12   -0.27970      1.99910     4.26438    0.01621     6.27970
      C   13   -0.22884      1.99912     4.21553    0.01419     6.22884
      C   14   -0.32254      1.99906     4.30666    0.01682     6.32254
      H   15    0.42266      0.00000     0.57372    0.00362     0.57734
      H   16    0.42750      0.00000     0.57024    0.00225     0.57250
      H   17    0.23960      0.00000     0.75882    0.00158     0.76040
      H   18    0.24024      0.00000     0.75816    0.00160     0.75976
      H   19    0.24360      0.00000     0.75499    0.00141     0.75640
      H   20    0.24649      0.00000     0.75159    0.00192     0.75351
      H   21    0.43727      0.00000     0.55783    0.00490     0.56273
      H   22    0.24300      0.00000     0.75526    0.00174     0.75700
      H   23    0.24259      0.00000     0.75600    0.00142     0.75741
      H   24    0.24056      0.00000     0.75787    0.00157     0.75944
      H   25    0.24444      0.00000     0.75410    0.00146     0.75556
      H   26    0.24793      0.00000     0.75007    0.00200     0.75207
 =======================================================================
   * Total *    0.00000     27.98750    69.76663    0.24587    98.00000

 Normal termination of Gaussian 16 at Thu Jul 11 21:34:43 2024.
