 Gaussian 16, Revision A.03,

 -------------------------------------------------------
 # opt=CalcFc B3LYP/6-31G** SCRF=(Solvent=water) scf=xqc
 -------------------------------------------------------

 ----------------------------------
 NFCPRRWCTNLGSN-UHFFFAOYSA-N_conf_1
 ----------------------------------
 Symbolic Z-matrix:
 Charge =  0 Multiplicity = 1

 SCF Done:  E(RB3LYP) =  -574.032027656     A.U. after   12 cycles
 SCF Done:  E(RB3LYP) =  -574.036125089     A.U. after   10 cycles
 SCF Done:  E(RB3LYP) =  -574.036511889     A.U. after   11 cycles
 SCF Done:  E(RB3LYP) =  -574.036778076     A.U. after   12 cycles
 SCF Done:  E(RB3LYP) =  -574.036432763     A.U. after   12 cycles
 SCF Done:  E(RB3LYP) =  -574.037583746     A.U. after   11 cycles
 SCF Done:  E(RB3LYP) =  -574.037184738     A.U. after   11 cycles
 SCF Done:  E(RB3LYP) =  -574.036989806     A.U. after   11 cycles
 SCF Done:  E(RB3LYP) =  -574.036944017     A.U. after   10 cycles
 SCF Done:  E(RB3LYP) =  -574.037720888     A.U. after    8 cycles
 SCF Done:  E(RB3LYP) =  -574.037863304     A.U. after   10 cycles
 SCF Done:  E(RB3LYP) =  -574.037904641     A.U. after   10 cycles
 SCF Done:  E(RB3LYP) =  -574.037907765     A.U. after    8 cycles
 SCF Done:  E(RB3LYP) =  -574.037907616     A.U. after    8 cycles
 SCF Done:  E(RB3LYP) =  -574.037907831     A.U. after    7 cycles
 SCF Done:  E(RB3LYP) =  -574.037908022     A.U. after    7 cycles
 Optimization completed.
    -- Stationary point found.
 Normal termination of Gaussian 16 at Thu Jul 11 21:12:20 2024.

 ----------------------------------------------------------------------
 # freq B3LYP/6-31G** SCRF=(Solvent=water) volume NMR pop=NPA density=c
 urrent Geom=AllCheck Guess=Read
 ----------------------------------------------------------------------

 Structure from the checkpoint file:  "NFCPRRWCTNLGSN-UHFFFAOYSA-N_conf_1_1.chk"
 ----------------------------------
 NFCPRRWCTNLGSN-UHFFFAOYSA-N_conf_1
 ----------------------------------
 Charge =  0 Multiplicity = 1

 SCF Done:  E(RB3LYP) =  -574.037908022     A.U. after    1 cycles

      1  N    Isotropic =   204.2211   Anisotropy =    51.5672

      2  C    Isotropic =    51.3818   Anisotropy =   157.4093

      3  C    Isotropic =    82.0875   Anisotropy =   130.6968

      4  C    Isotropic =    69.7847   Anisotropy =   165.0516

      5  C    Isotropic =    79.4391   Anisotropy =   149.7309

      6  C    Isotropic =    69.6153   Anisotropy =   144.2743

      7  C    Isotropic =    69.3082   Anisotropy =   116.2011

      8  N    Isotropic =   175.9894   Anisotropy =    62.7259

      9  C    Isotropic =    50.8718   Anisotropy =   153.1477

     10  C    Isotropic =    81.9431   Anisotropy =   131.6982

     11  C    Isotropic =    68.1014   Anisotropy =   166.5092

     12  C    Isotropic =    79.2411   Anisotropy =   154.4873

     13  C    Isotropic =    67.9421   Anisotropy =   167.2115

     14  C    Isotropic =    84.5249   Anisotropy =   146.2169

     15  H    Isotropic =    27.8843   Anisotropy =     9.0891

     16  H    Isotropic =    28.6957   Anisotropy =    14.4244

     17  H    Isotropic =    24.9054   Anisotropy =     5.8212

     18  H    Isotropic =    24.5210   Anisotropy =     3.6332

     19  H    Isotropic =    24.9475   Anisotropy =     3.6373

     20  H    Isotropic =    24.6563   Anisotropy =     7.1201

     21  H    Isotropic =    26.7509   Anisotropy =    11.7147

     22  H    Isotropic =    24.9209   Anisotropy =     6.7092

     23  H    Isotropic =    24.3931   Anisotropy =     4.2332

     24  H    Isotropic =    24.8993   Anisotropy =     3.2522

     25  H    Isotropic =    24.5220   Anisotropy =     5.5676

     26  H    Isotropic =    25.3866   Anisotropy =    10.8905

  Exact polarizability: 251.524   0.118 165.254 -21.168  13.132 125.070
 Approx polarizability: 279.167   0.304 208.320 -26.264  18.729 159.239

                      1                      2                      3
                      A                      A                      A
 Frequencies --     39.6096                55.0615                81.8879
 Red. masses --      4.6688                 3.8622                 4.5349
 Frc consts  --      0.0043                 0.0069                 0.0179
 IR Inten    --      0.6614                 0.2442                 0.4367

                      4                      5                      6
                      A                      A                      A
 Frequencies --    180.4886               200.8054               275.3525
 Red. masses --      4.0413                 4.2622                 4.3465
 Frc consts  --      0.0776                 0.1013                 0.1942
 IR Inten    --      1.3454                 3.2303                 2.5796

                      7                      8                      9
                      A                      A                      A
 Frequencies --    292.3381               335.4023               387.2046
 Red. masses --      4.0866                 2.7185                 1.1219
 Frc consts  --      0.2058                 0.1802                 0.0991
 IR Inten    --     10.7355                 5.3442                48.5790

                     10                     11                     12
                      A                      A                      A
 Frequencies --    420.3771               438.6052               464.0242
 Red. masses --      3.1010                 3.1842                 1.7965
 Frc consts  --      0.3229                 0.3609                 0.2279
 IR Inten    --      1.0077                 1.3459               191.9647

                     13                     14                     15
                      A                      A                      A
 Frequencies --    475.0353               524.3239               540.7041
 Red. masses --      2.6654                 2.9253                 4.1322
 Frc consts  --      0.3544                 0.4738                 0.7118
 IR Inten    --     50.2541                 1.7267                70.8997

                     16                     17                     18
                      A                      A                      A
 Frequencies --    573.3879               599.8317               630.1589
 Red. masses --      4.2207                 6.4662                 6.0565
 Frc consts  --      0.8176                 1.3707                 1.4170
 IR Inten    --     22.8313                 5.7391                 5.3523

                     19                     20                     21
                      A                      A                      A
 Frequencies --    644.2768               659.8202               705.9108
 Red. masses --      1.5259                 3.6992                 2.2197
 Frc consts  --      0.3732                 0.9489                 0.6517
 IR Inten    --    378.5457                39.9088                15.7968

                     22                     23                     24
                      A                      A                      A
 Frequencies --    739.4566               759.8727               762.5594
 Red. masses --      3.9773                 1.4167                 1.6798
 Frc consts  --      1.2813                 0.4819                 0.5755
 IR Inten    --     24.3067               107.7347                87.2327

                     25                     26                     27
                      A                      A                      A
 Frequencies --    802.7795               833.1546               846.3867
 Red. masses --      3.3961                 1.2782                 2.1290
 Frc consts  --      1.2895                 0.5228                 0.8986
 IR Inten    --      2.5387                 0.9652                 3.5670

                     28                     29                     30
                      A                      A                      A
 Frequencies --    867.8614               885.7987               897.8983
 Red. masses --      2.0875                 1.4736                 4.6931
 Frc consts  --      0.9263                 0.6813                 2.2293
 IR Inten    --      6.3707                11.1556                 6.5764

                     31                     32                     33
                      A                      A                      A
 Frequencies --    937.5292               962.9303               972.0468
 Red. masses --      1.3694                 1.3281                 1.2374
 Frc consts  --      0.7092                 0.7256                 0.6889
 IR Inten    --      2.5158                 0.0804                 0.2372

                     34                     35                     36
                      A                      A                      A
 Frequencies --    985.4629              1007.1792              1052.7334
 Red. masses --      1.2262                 5.8565                 2.2002
 Frc consts  --      0.7016                 3.5003                 1.4367
 IR Inten    --      0.2908                 3.7844                 8.1896

                     37                     38                     39
                      A                      A                      A
 Frequencies --   1056.5605              1083.6327              1111.0409
 Red. masses --      2.0663                 1.7475                 1.5317
 Frc consts  --      1.3590                 1.2090                 1.1140
 IR Inten    --      5.5759                 8.6637                 7.7235

                     40                     41                     42
                      A                      A                      A
 Frequencies --   1163.3905              1178.6840              1181.9396
 Red. masses --      1.2324                 1.0840                 1.1045
 Frc consts  --      0.9828                 0.8873                 0.9091
 IR Inten    --     19.8815                 2.6175                13.1578

                     43                     44                     45
                      A                      A                      A
 Frequencies --   1202.3051              1241.5217              1280.0872
 Red. masses --      1.1287                 3.6152                 2.0739
 Frc consts  --      0.9613                 3.2832                 2.0022
 IR Inten    --     12.6496                14.1707                54.1596

                     46                     47                     48
                      A                      A                      A
 Frequencies --   1289.1469              1335.9023              1345.2946
 Red. masses --      2.4585                 2.5675                 2.0599
 Frc consts  --      2.4072                 2.6997                 2.1965
 IR Inten    --    132.0135               224.4025                42.6515

                     49                     50                     51
                      A                      A                      A
 Frequencies --   1363.4402              1367.3263              1450.1545
 Red. masses --      3.4952                 2.3257                 1.6696
 Frc consts  --      3.8282                 2.5619                 2.0687
 IR Inten    --     18.8382                22.0113                66.2229

                     52                     53                     54
                      A                      A                      A
 Frequencies --   1497.7022              1532.4608              1537.1392
 Red. masses --      2.4571                 1.9857                 2.4917
 Frc consts  --      3.2473                 2.7475                 3.4688
 IR Inten    --     17.3200                 0.9286               331.0170

                     55                     56                     57
                      A                      A                      A
 Frequencies --   1544.1186              1627.9857              1635.8475
 Red. masses --      2.4799                 2.1522                 2.3833
 Frc consts  --      3.4837                 3.3607                 3.7576
 IR Inten    --     70.9016                22.7735                44.1466

                     58                     59                     60
                      A                      A                      A
 Frequencies --   1639.4329              1653.7713              1664.4570
 Red. masses --      4.8928                 5.0227                 3.4382
 Frc consts  --      7.7480                 8.0935                 5.6121
 IR Inten    --     13.4130               146.4766               153.9325

                     61                     62                     63
                      A                      A                      A
 Frequencies --   3171.7193              3175.4698              3180.4122
 Red. masses --      1.0866                 1.0864                 1.0874
 Frc consts  --      6.4405                 6.4545                 6.4804
 IR Inten    --     17.8295                15.0189                 3.1494

                     64                     65                     66
                      A                      A                      A
 Frequencies --   3181.6660              3189.0425              3191.7354
 Red. masses --      1.0889                 1.0927                 1.0927
 Frc consts  --      6.4944                 6.5474                 6.5587
 IR Inten    --      6.0027                48.3276                41.6662

                     67                     68                     69
                      A                      A                      A
 Frequencies --   3205.6771              3207.9708              3220.1473
 Red. masses --      1.0963                 1.0974                 1.0925
 Frc consts  --      6.6380                 6.6539                 6.6747
 IR Inten    --     46.8176                30.6743                 8.5705

                     70                     71                     72
                      A                      A                      A
 Frequencies --   3545.3335              3590.6880              3655.2685
 Red. masses --      1.0482                 1.0756                 1.0980
 Frc consts  --      7.7628                 8.1706                 8.6436
 IR Inten    --     31.8256                32.3920                37.2610

 - Thermochemistry -
 -------------------
 Temperature   298.150 Kelvin.  Pressure   1.00000 Atm.
 Atom     1 has atomic number  7 and mass  14.00307

 Molecular mass:   184.10005 amu.
 Principal axes and moments of inertia in atomic units:
                           1         2         3
     Eigenvalues --  1072.447174566.625454821.65645
           X            0.99999  -0.00203  -0.00285
           Y            0.00208   0.99986   0.01677
           Z            0.00281  -0.01678   0.99986
 This molecule is an asymmetric top.
 Rotational symmetry number  1.
 Warning -- assumption of classical behavior for rotation
           may cause significant error
 Rotational temperatures (Kelvin)      0.08076     0.01897     0.01796
 Rotational constants (GHZ):           1.68283     0.39520     0.37430
 Zero-point vibrational energy     564258.9 (Joules/Mol)
                                  134.86112 (Kcal/Mol)
 Warning -- explicit consideration of  17 degrees of freedom as
           vibrations may cause significant error
 Vibrational temperatures:     56.99    79.22   117.82   259.68   288.91
          (Kelvin)            396.17   420.61   482.57   557.10   604.83
                              631.06   667.63   683.47   754.39   777.95
                              824.98   863.02   906.66   926.97   949.33
                             1015.65  1063.91  1093.29  1097.15  1155.02
                             1198.72  1217.76  1248.66  1274.47  1291.88
                             1348.90  1385.44  1398.56  1417.86  1449.11
                             1514.65  1520.15  1559.11  1598.54  1673.86
                             1695.86  1700.55  1729.85  1786.27  1841.76
                             1854.79  1922.07  1935.58  1961.69  1967.28
                             2086.45  2154.86  2204.87  2211.60  2221.64
                             2342.31  2353.62  2358.78  2379.41  2394.78
                             4563.40  4568.79  4575.90  4577.71  4588.32
                             4592.20  4612.25  4615.55  4633.07  5100.94
                             5166.20  5259.12

 Zero-point correction=                           0.214915 (Hartree/Particle)
 Thermal correction to Energy=                    0.226412
 Thermal correction to Enthalpy=                  0.227356
 Thermal correction to Gibbs Free Energy=         0.176856
 Sum of electronic and zero-point Energies=           -573.822993
 Sum of electronic and thermal Energies=              -573.811496
 Sum of electronic and thermal Enthalpies=            -573.810552
 Sum of electronic and thermal Free Energies=         -573.861052

                     E (Thermal)             CV                S
                      KCal/Mol        Cal/Mol-Kelvin    Cal/Mol-Kelvin
 Total                  142.076             46.924            106.287
 Electronic               0.000              0.000              0.000
 Translational            0.889              2.981             41.537
 Rotational               0.889              2.981             31.535
 Vibrational            140.298             40.962             33.215
 Vibration     1          0.594              1.981              5.279
 Vibration     2          0.596              1.976              4.627
 Vibration     3          0.600              1.962              3.845
 Vibration     4          0.629              1.866              2.323
 Vibration     5          0.638              1.839              2.126
 Vibration     6          0.677              1.719              1.562
 Vibration     7          0.688              1.688              1.460
 Vibration     8          0.717              1.605              1.234
 Vibration     9          0.756              1.498              1.011
 Vibration    10          0.783              1.426              0.891
 Vibration    11          0.799              1.386              0.831
 Vibration    12          0.822              1.330              0.754
 Vibration    13          0.832              1.305              0.724
 Vibration    14          0.879              1.196              0.600
 Vibration    15          0.896              1.160              0.564
 Vibration    16          0.930              1.089              0.498
 Vibration    17          0.958              1.032              0.450

 Optimization completed.
    -- Stationary point found.
 Normal termination of Gaussian 16 at Thu Jul 11 21:37:40 2024.
 Gaussian 16:  EM64L-G16RevA.03 25-Dec-2016

 ----------------------------------------------------------------------
 # TD(NStates=10, Root=1) B3LYP/6-31G** SCRF=(Solvent=water) volume pop
 =NPA density=current Geom=AllCheck Guess=Read
 ----------------------------------------------------------------------

 Structure from the checkpoint file:  "NFCPRRWCTNLGSN-UHFFFAOYSA-N_conf_1_2.chk"
 ----------------------------------
 NFCPRRWCTNLGSN-UHFFFAOYSA-N_conf_1
 ----------------------------------
 Charge =  0 Multiplicity = 1

                         Standard orientation:
 ---------------------------------------------------------------------
 Center     Atomic      Atomic             Coordinates (Angstroms)
 Number     Number       Type             X           Y           Z
 ---------------------------------------------------------------------
      1          7           0       -1.006447    1.855688   -1.060941
      2          6           0       -1.720991    0.819104   -0.467189
      3          6           0       -3.001415    1.028100    0.074974
      4          6           0       -3.701570   -0.012821    0.680764
      5          6           0       -3.140739   -1.289874    0.765226
      6          6           0       -1.861306   -1.503368    0.250590
      7          6           0       -1.144202   -0.469648   -0.359210
      8          7           0        0.132176   -0.710907   -0.950479
      9          6           0        1.346033   -0.358900   -0.335096
     10          6           0        2.548269   -0.862864   -0.867628
     11          6           0        3.773340   -0.512251   -0.306815
     12          6           0        3.834419    0.351648    0.791275
     13          6           0        2.643573    0.851656    1.321308
     14          6           0        1.408238    0.502817    0.773428
     15          1           0       -0.308625    1.531265   -1.720780
     16          1           0       -1.579749    2.594344   -1.448143
     17          1           0       -3.449594    2.015353   -0.001954
     18          1           0       -4.693916    0.175262    1.080585
     19          1           0       -3.685206   -2.104762    1.231404
     20          1           0       -1.400869   -2.485993    0.313181
     21          1           0        0.184332   -1.586093   -1.456582
     22          1           0        2.511957   -1.531858   -1.723973
     23          1           0        4.686777   -0.918323   -0.732656
     24          1           0        4.790724    0.625826    1.225413
     25          1           0        2.669152    1.518723    2.178817
     26          1           0        0.493008    0.891205    1.204859
 ---------------------------------------------------------------------

 SCF Done:  E(RB3LYP) =  -574.037908022     A.U. after    1 cycles

 Excitation energies and oscillator strengths:

 Excited State   1:      Singlet-A      4.4177 eV  280.65 nm  f=0.3167  <S**2>=0.000
      49 -> 50         0.69665
 This state for optimization and/or second-order correction.
 Total Energy, E(TD-HF/TD-DFT) =  -573.875561234
 Copying the excited state density for this state as the 1-particle RhoCI density.

 Excited State   2:      Singlet-A      4.6539 eV  266.41 nm  f=0.0337  <S**2>=0.000
      48 -> 51        -0.11169
      49 -> 51         0.67790

 Excited State   3:      Singlet-A      4.8093 eV  257.80 nm  f=0.0170  <S**2>=0.000
      48 -> 50         0.63720
      49 -> 52        -0.22489

 Excited State   4:      Singlet-A      5.0449 eV  245.76 nm  f=0.0084  <S**2>=0.000
      48 -> 50         0.15659
      48 -> 51         0.57641
      49 -> 51         0.12540
      49 -> 52         0.30935
      49 -> 53        -0.11317

 Excited State   5:      Singlet-A      5.1290 eV  241.73 nm  f=0.1339  <S**2>=0.000
      48 -> 50         0.16684
      48 -> 51        -0.33638
      48 -> 52        -0.21527
      49 -> 52         0.52420
      49 -> 53        -0.10722

 Excited State   6:      Singlet-A      5.3155 eV  233.25 nm  f=0.0957  <S**2>=0.000
      47 -> 52         0.10684
      48 -> 52        -0.12285
      48 -> 53         0.19699
      49 -> 52         0.10181
      49 -> 53         0.63345

 Excited State   7:      Singlet-A      5.6197 eV  220.62 nm  f=0.3216  <S**2>=0.000
      46 -> 50        -0.11043
      47 -> 50        -0.14399
      48 -> 52         0.62765
      49 -> 52         0.21925

 Excited State   8:      Singlet-A      5.6661 eV  218.82 nm  f=0.1913  <S**2>=0.000
      46 -> 51         0.10248
      47 -> 50        -0.11765
      48 -> 52        -0.11040
      48 -> 53         0.63856
      49 -> 53        -0.18492

 Excited State   9:      Singlet-A      6.0038 eV  206.51 nm  f=0.0335  <S**2>=0.000
      46 -> 50        -0.37980
      46 -> 51         0.25892
      47 -> 50         0.44051
      47 -> 51         0.24550
      48 -> 51         0.11415

 Excited State  10:      Singlet-A      6.1475 eV  201.68 nm  f=0.0607  <S**2>=0.000
      46 -> 50         0.29572
      46 -> 51         0.28264
      46 -> 53         0.15436
      47 -> 50        -0.21009
      47 -> 51         0.48033
      47 -> 53        -0.14880

 The electronic state is 1-A.
 Alpha  occ. eigenvalues --  -14.35123 -14.33606 -10.22950 -10.22825 -10.21912
 Alpha  occ. eigenvalues --  -10.18864 -10.18779 -10.18778 -10.18726 -10.18378
 Alpha  occ. eigenvalues --  -10.18352 -10.18106 -10.18072 -10.17881  -0.94707
 Alpha  occ. eigenvalues --   -0.90628  -0.84298  -0.82710  -0.75023  -0.74028
 Alpha  occ. eigenvalues --   -0.72735  -0.70639  -0.62249  -0.60688  -0.60106
 Alpha  occ. eigenvalues --   -0.57776  -0.52789  -0.51952  -0.50275  -0.49722
 Alpha  occ. eigenvalues --   -0.47590  -0.44896  -0.43307  -0.42949  -0.42566
 Alpha  occ. eigenvalues --   -0.41753  -0.41385  -0.38980  -0.37444  -0.36270
 Alpha  occ. eigenvalues --   -0.35421  -0.34731  -0.33508  -0.31198  -0.30655
 Alpha  occ. eigenvalues --   -0.24979  -0.24750  -0.21024  -0.19666
 Alpha virt. eigenvalues --   -0.00542   0.00066   0.01445   0.01900   0.09858
 Alpha virt. eigenvalues --    0.10240   0.10416   0.10821   0.14558   0.15430
 Alpha virt. eigenvalues --    0.16467   0.16700   0.16798   0.17251   0.17935

 Mulliken charges:
               1
     1  N   -0.644385
     2  C    0.276892
     3  C   -0.194090
     4  C   -0.152290
     5  C   -0.105585
     6  C   -0.194573
     7  C    0.155731
     8  N   -0.588441
     9  C    0.268858
    10  C   -0.120076
    11  C   -0.102318
    12  C   -0.092054
    13  C   -0.115073
    14  C   -0.084202
    15  H    0.290013
    16  H    0.287130
    17  H    0.061347
    18  H    0.060661
    19  H    0.076995
    20  H    0.061669
    21  H    0.280857
    22  H    0.115321
    23  H    0.113004
    24  H    0.112024
    25  H    0.112680
    26  H    0.119907
 Sum of Mulliken charges =  -0.00000

 Dipole moment (field-independent basis, Debye):
    X=              5.2628    Y=              0.6373    Z=             -3.1947  Tot=              6.1894
 Quadrupole moment (field-independent basis, Debye-Ang):
   XX=            -82.3008   YY=            -75.1004   ZZ=            -76.4430
   XY=             -4.5820   XZ=              1.6285   YZ=              0.6032

 Summary of Natural Population Analysis:

                                       Natural Population
                Natural  -----------------------------------------------
    Atom  No    Charge         Core      Valence    Rydberg      Total
 -----------------------------------------------------------------------
      N    1   -0.79568      1.99948     5.78492    0.01127     7.79568
      C    2    0.19431      1.99894     3.78856    0.01819     5.80569
      C    3   -0.39118      1.99905     4.37434    0.01780     6.39118
      C    4   -0.31907      1.99913     4.30215    0.01779     6.31907
      C    5   -0.22247      1.99911     4.20888    0.01448     6.22247
      C    6   -0.39167      1.99905     4.37307    0.01955     6.39167
      C    7    0.00210      1.99886     3.97803    0.02101     5.99790
      N    8   -0.47260      1.99937     5.46166    0.01157     7.47260
      C    9    0.14397      1.99896     3.83881    0.01827     5.85603
      C   10   -0.25051      1.99905     4.23743    0.01402     6.25051
      C   11   -0.23510      1.99913     4.22196    0.01401     6.23510
      C   12   -0.23362      1.99910     4.21984    0.01468     6.23362
      C   13   -0.23936      1.99913     4.22580    0.01443     6.23936
      C   14   -0.23950      1.99905     4.22804    0.01241     6.23950
      H   15    0.42051      0.00000     0.57690    0.00260     0.57949
      H   16    0.42044      0.00000     0.57646    0.00310     0.57956
      H   17    0.22845      0.00000     0.76994    0.00162     0.77155
      H   18    0.22811      0.00000     0.77038    0.00151     0.77189
      H   19    0.23454      0.00000     0.76401    0.00145     0.76546
      H   20    0.22996      0.00000     0.76857    0.00147     0.77004
      H   21    0.41731      0.00000     0.57381    0.00889     0.58269
      H   22    0.25078      0.00000     0.74704    0.00218     0.74922
      H   23    0.25414      0.00000     0.74445    0.00141     0.74586
      H   24    0.25177      0.00000     0.74683    0.00140     0.74823
      H   25    0.25356      0.00000     0.74508    0.00135     0.74644
      H   26    0.26084      0.00000     0.73762    0.00154     0.73916
 =======================================================================
   * Total *   -0.00000     27.98741    69.76460    0.24799    98.00000

 Normal termination of Gaussian 16 at Thu Jul 11 21:57:41 2024.
