 Gaussian 16, Revision A.03,

 -------------------------------------------------------
 # opt=CalcFc B3LYP/6-31G** SCRF=(Solvent=water) scf=xqc
 -------------------------------------------------------

 ----------------------------------
 KLNPWTHGTVSSEU-UHFFFAOYSA-N_conf_3
 ----------------------------------
 Symbolic Z-matrix:
 Charge =  0 Multiplicity = 1

 SCF Done:  E(RB3LYP) =  -544.375192150     A.U. after   10 cycles
 SCF Done:  E(RB3LYP) =  -544.378516551     A.U. after    9 cycles
 SCF Done:  E(RB3LYP) =  -544.378665154     A.U. after    9 cycles
 SCF Done:  E(RB3LYP) =  -544.378666169     A.U. after    8 cycles
 SCF Done:  E(RB3LYP) =  -544.378679978     A.U. after    8 cycles
 SCF Done:  E(RB3LYP) =  -544.378682199     A.U. after    7 cycles
 SCF Done:  E(RB3LYP) =  -544.378681923     A.U. after    6 cycles
 SCF Done:  E(RB3LYP) =  -544.378681832     A.U. after    6 cycles
 SCF Done:  E(RB3LYP) =  -544.378682177     A.U. after    7 cycles
 SCF Done:  E(RB3LYP) =  -544.378681897     A.U. after    7 cycles
 Optimization completed.
    -- Stationary point found.
 Normal termination of Gaussian 16 at Thu Jul 18 06:10:16 2024.

 ----------------------------------------------------------------------
 # freq B3LYP/6-31G** SCRF=(Solvent=water) volume NMR pop=NPA density=c
 urrent Geom=AllCheck Guess=Read
 ----------------------------------------------------------------------

 Structure from the checkpoint file:  "KLNPWTHGTVSSEU-UHFFFAOYSA-N_conf_3_1.chk"
 ----------------------------------
 KLNPWTHGTVSSEU-UHFFFAOYSA-N_conf_3
 ----------------------------------
 Charge =  0 Multiplicity = 1

 SCF Done:  E(RB3LYP) =  -544.378681897     A.U. after    1 cycles

      1  N    Isotropic =   232.5982   Anisotropy =    33.3914

      2  C    Isotropic =   146.1471   Anisotropy =    38.2233

      3  C    Isotropic =   155.8439   Anisotropy =    34.8953

      4  C    Isotropic =   162.9010   Anisotropy =    22.9664

      5  C    Isotropic =   159.5980   Anisotropy =    23.7245

      6  C    Isotropic =   162.9965   Anisotropy =    17.8145

      7  C    Isotropic =   165.8708   Anisotropy =    19.5148

      8  C    Isotropic =   161.2472   Anisotropy =    13.2162

      9  C    Isotropic =   167.3778   Anisotropy =    18.7752

     10  C    Isotropic =   168.6081   Anisotropy =    19.2110

     11  C    Isotropic =   159.3773   Anisotropy =    15.0512

     12  C    Isotropic =   151.3589   Anisotropy =    34.0132

     13  N    Isotropic =   236.1823   Anisotropy =    34.3872

     14  H    Isotropic =    31.0612   Anisotropy =    15.5635

     15  H    Isotropic =    31.5825   Anisotropy =    12.0523

     16  H    Isotropic =    28.8371   Anisotropy =     5.8062

     17  H    Isotropic =    29.2845   Anisotropy =     4.9634

     18  H    Isotropic =    30.5136   Anisotropy =     4.6866

     19  H    Isotropic =    30.3279   Anisotropy =     4.9854

     20  H    Isotropic =    30.1645   Anisotropy =     5.9350

     21  H    Isotropic =    30.7623   Anisotropy =     5.4806

     22  H    Isotropic =    30.2060   Anisotropy =     6.9094

     23  H    Isotropic =    30.4991   Anisotropy =     5.2667

     24  H    Isotropic =    30.7771   Anisotropy =     6.0011

     25  H    Isotropic =    29.9189   Anisotropy =     7.7043

     26  H    Isotropic =    30.1935   Anisotropy =     7.8780

     27  H    Isotropic =    30.4029   Anisotropy =     5.0044

     28  H    Isotropic =    30.2572   Anisotropy =     7.8388

     29  H    Isotropic =    30.2811   Anisotropy =     8.0149

     30  H    Isotropic =    30.5140   Anisotropy =     5.4004

     31  H    Isotropic =    30.1337   Anisotropy =     7.6933

     32  H    Isotropic =    30.2835   Anisotropy =     7.3618

     33  H    Isotropic =    30.0712   Anisotropy =     6.1527

     34  H    Isotropic =    30.2130   Anisotropy =     8.5432

     35  H    Isotropic =    30.4864   Anisotropy =     7.1598

     36  H    Isotropic =    29.0285   Anisotropy =     5.1354

     37  H    Isotropic =    28.8549   Anisotropy =     9.1762

     38  H    Isotropic =    31.1738   Anisotropy =    15.5855

     39  H    Isotropic =    31.8941   Anisotropy =    13.2033

  Exact polarizability: 189.440  -1.002 161.811  -0.141   1.933 159.107
 Approx polarizability: 181.121  -1.593 176.067   1.349   2.849 176.255

                      1                      2                      3
                      A                      A                      A
 Frequencies --     16.1921                17.7098                30.4368
 Red. masses --      3.5605                 3.4370                 2.8555
 Frc consts  --      0.0006                 0.0006                 0.0016
 IR Inten    --      0.4505                 0.7103                 1.2354

                      4                      5                      6
                      A                      A                      A
 Frequencies --     50.9073                54.0007                65.2050
 Red. masses --      2.3427                 3.5269                 3.1951
 Frc consts  --      0.0036                 0.0061                 0.0080
 IR Inten    --      3.8092                 2.5647                 0.7786

                      7                      8                      9
                      A                      A                      A
 Frequencies --    108.3827               139.4049               153.8010
 Red. masses --      2.2928                 2.0361                 2.1419
 Frc consts  --      0.0159                 0.0233                 0.0299
 IR Inten    --      2.1432                 2.6559                 9.3820

                     10                     11                     12
                      A                      A                      A
 Frequencies --    158.5956               194.2364               210.4751
 Red. masses --      3.1178                 2.1189                 1.8143
 Frc consts  --      0.0462                 0.0471                 0.0474
 IR Inten    --      1.5551                 1.9132                 6.9768

                     13                     14                     15
                      A                      A                      A
 Frequencies --    235.8923               251.1933               262.5705
 Red. masses --      2.2761                 1.6658                 1.2439
 Frc consts  --      0.0746                 0.0619                 0.0505
 IR Inten    --      2.0830                31.0343                48.3611

                     16                     17                     18
                      A                      A                      A
 Frequencies --    271.4463               312.6254               351.9640
 Red. masses --      1.4244                 1.9241                 2.7867
 Frc consts  --      0.0618                 0.1108                 0.2034
 IR Inten    --     43.4804                 2.9086                 3.9254

                     19                     20                     21
                      A                      A                      A
 Frequencies --    368.5025               431.3754               479.2551
 Red. masses --      2.4969                 2.7440                 2.4791
 Frc consts  --      0.1998                 0.3008                 0.3355
 IR Inten    --      1.7254                 9.0954                 1.9274

                     22                     23                     24
                      A                      A                      A
 Frequencies --    520.1008               538.7601               717.2766
 Red. masses --      2.3012                 2.4803                 1.1889
 Frc consts  --      0.3668                 0.4242                 0.3604
 IR Inten    --      9.5880                 2.4769                16.7428

                     25                     26                     27
                      A                      A                      A
 Frequencies --    732.2480               747.2246               774.7972
 Red. masses --      1.1897                 1.2447                 1.3262
 Frc consts  --      0.3758                 0.4095                 0.4691
 IR Inten    --      4.2901                 0.8819                12.0107

                     28                     29                     30
                      A                      A                      A
 Frequencies --    799.5595               841.8734               857.5793
 Red. masses --      1.3647                 1.6269                 2.1222
 Frc consts  --      0.5140                 0.6794                 0.9196
 IR Inten    --      9.9857                43.8819                36.0495

                     31                     32                     33
                      A                      A                      A
 Frequencies --    862.0563               886.4476               908.8190
 Red. masses --      1.9110                 1.4009                 1.4473
 Frc consts  --      0.8367                 0.6486                 0.7043
 IR Inten    --     17.1390                93.1222               103.1991

                     34                     35                     36
                      A                      A                      A
 Frequencies --    919.1972               934.3093               967.2280
 Red. masses --      2.2712                 1.3824                 2.1352
 Frc consts  --      1.1307                 0.7110                 1.1769
 IR Inten    --     34.7635                37.0565                 5.7922

                     37                     38                     39
                      A                      A                      A
 Frequencies --    987.3423              1000.5576              1021.4726
 Red. masses --      1.6071                 1.9867                 1.9846
 Frc consts  --      0.9231                 1.1718                 1.2201
 IR Inten    --      1.0988                19.0395                 6.0230

                     40                     41                     42
                      A                      A                      A
 Frequencies --   1034.3660              1041.4497              1066.0861
 Red. masses --      1.8431                 2.2290                 1.6410
 Frc consts  --      1.1618                 1.4244                 1.0989
 IR Inten    --      7.3815                 5.1584                 1.4899

                     43                     44                     45
                      A                      A                      A
 Frequencies --   1074.8112              1083.4939              1094.3236
 Red. masses --      2.1744                 2.4018                 1.8661
 Frc consts  --      1.4800                 1.6613                 1.3167
 IR Inten    --      0.1594                 8.9964                 4.5690

                     46                     47                     48
                      A                      A                      A
 Frequencies --   1104.1863              1118.9593              1120.2796
 Red. masses --      1.6263                 1.6855                 1.7416
 Frc consts  --      1.1683                 1.2434                 1.2878
 IR Inten    --      1.4945                 4.0860                 3.0309

                     49                     50                     51
                      A                      A                      A
 Frequencies --   1151.8787              1178.7729              1199.5061
 Red. masses --      1.5750                 1.5894                 1.4262
 Frc consts  --      1.2313                 1.3012                 1.2090
 IR Inten    --     18.0070                 0.0191                 1.3354

                     52                     53                     54
                      A                      A                      A
 Frequencies --   1225.9823              1244.2453              1279.0492
 Red. masses --      1.4533                 1.3905                 1.3600
 Frc consts  --      1.2870                 1.2684                 1.3109
 IR Inten    --      1.2248                 2.8060                 2.1742

                     55                     56                     57
                      A                      A                      A
 Frequencies --   1287.2627              1302.4026              1312.6288
 Red. masses --      1.3217                 1.2404                 1.3210
 Frc consts  --      1.2904                 1.2397                 1.3410
 IR Inten    --      1.1199                 5.4322                 2.3679

                     58                     59                     60
                      A                      A                      A
 Frequencies --   1322.5178              1326.0055              1330.9614
 Red. masses --      1.2552                 1.1691                 1.1002
 Frc consts  --      1.2935                 1.2111                 1.1483
 IR Inten    --      6.5602                 0.0659                 0.9065

                     61                     62                     63
                      A                      A                      A
 Frequencies --   1335.3927              1343.2722              1348.3798
 Red. masses --      1.1524                 1.1450                 1.1035
 Frc consts  --      1.2108                 1.2172                 1.1821
 IR Inten    --      0.4479                 2.2728                 1.4056

                     64                     65                     66
                      A                      A                      A
 Frequencies --   1359.9520              1374.2989              1394.1460
 Red. masses --      1.2050                 1.3640                 1.4673
 Frc consts  --      1.3130                 1.5179                 1.6804
 IR Inten    --      2.7766                 0.4293                17.5219

                     67                     68                     69
                      A                      A                      A
 Frequencies --   1397.8947              1406.2453              1410.5939
 Red. masses --      1.4618                 1.4483                 1.5602
 Frc consts  --      1.6830                 1.6874                 1.8291
 IR Inten    --      6.0083                 2.1159                 2.6553

                     70                     71                     72
                      A                      A                      A
 Frequencies --   1414.0406              1432.7212              1437.9476
 Red. masses --      1.5003                 1.4423                 1.4964
 Frc consts  --      1.7675                 1.7443                 1.8230
 IR Inten    --      1.6900                13.4815                18.3449

                     73                     74                     75
                      A                      A                      A
 Frequencies --   1483.6313              1484.6371              1487.8891
 Red. masses --      1.0812                 1.0767                 1.0812
 Frc consts  --      1.4022                 1.3982                 1.4103
 IR Inten    --      0.4042                 0.2292                 4.1798

                     76                     77                     78
                      A                      A                      A
 Frequencies --   1491.3999              1494.9249              1497.6025
 Red. masses --      1.0882                 1.0907                 1.0962
 Frc consts  --      1.4261                 1.4361                 1.4485
 IR Inten    --      2.9066                 0.1003                 1.2560

                     79                     80                     81
                      A                      A                      A
 Frequencies --   1506.3540              1509.8175              1511.9954
 Red. masses --      1.0944                 1.0998                 1.0949
 Frc consts  --      1.4631                 1.4771                 1.4748
 IR Inten    --     12.3856                 0.8943                 2.8247

                     82                     83                     84
                      A                      A                      A
 Frequencies --   1523.5178              1528.1823              1654.5496
 Red. masses --      1.0870                 1.0932                 1.0877
 Frc consts  --      1.4865                 1.5041                 1.7544
 IR Inten    --      5.0937                 1.3873                36.4614

                     85                     86                     87
                      A                      A                      A
 Frequencies --   1656.0598              2953.9316              2959.4825
 Red. masses --      1.0872                 1.0722                 1.0737
 Frc consts  --      1.7568                 5.5124                 5.5407
 IR Inten    --     34.9635               118.3618               129.8912

                     88                     89                     90
                      A                      A                      A
 Frequencies --   3008.8419              3009.6561              3011.0935
 Red. masses --      1.0606                 1.0625                 1.0638
 Frc consts  --      5.6574                 5.6702                 5.6829
 IR Inten    --      6.8099                 4.0617                42.7334

                     91                     92                     93
                      A                      A                      A
 Frequencies --   3013.1438              3014.2468              3018.3458
 Red. masses --      1.0630                 1.0631                 1.0626
 Frc consts  --      5.6860                 5.6908                 5.7035
 IR Inten    --      6.8651                97.0488               141.0706

                     94                     95                     96
                      A                      A                      A
 Frequencies --   3022.6468              3027.4897              3036.9614
 Red. masses --      1.0654                 1.0645                 1.0641
 Frc consts  --      5.7349                 5.7487                 5.7826
 IR Inten    --     61.6487                 1.1953                41.1519

                     97                     98                     99
                      A                      A                      A
 Frequencies --   3040.1253              3044.0823              3048.8183
 Red. masses --      1.0951                 1.0902                 1.0933
 Frc consts  --      5.9635                 5.9522                 5.9878
 IR Inten    --     13.3739                61.5584                55.3677

                    100                    101                    102
                      A                      A                      A
 Frequencies --   3049.2934              3051.8566              3056.3924
 Red. masses --      1.0972                 1.0927                 1.0998
 Frc consts  --      6.0108                 5.9960                 6.0531
 IR Inten    --      9.6405                35.0403                16.5184

                    103                    104                    105
                      A                      A                      A
 Frequencies --   3057.6126              3066.8900              3070.7155
 Red. masses --      1.0998                 1.0927                 1.1035
 Frc consts  --      6.0579                 6.0556                 6.1308
 IR Inten    --     88.9616                84.1009               308.9304

                    106                    107                    108
                      A                      A                      A
 Frequencies --   3073.5440              3082.0966              3474.6475
 Red. masses --      1.1021                 1.1033                 1.0510
 Frc consts  --      6.1343                 6.1750                 7.4762
 IR Inten    --    122.6846               156.2791                 2.2446

                    109                    110                    111
                      A                      A                      A
 Frequencies --   3475.5384              3552.2004              3555.1967
 Red. masses --      1.0510                 1.0912                 1.0913
 Frc consts  --      7.4798                 8.1122                 8.1271
 IR Inten    --      1.5624                 0.2686                 0.0423

 - Thermochemistry -
 -------------------
 Temperature   298.150 Kelvin.  Pressure   1.00000 Atm.
 Atom     1 has atomic number  7 and mass  14.00307

 Molecular mass:   186.20960 amu.
 Principal axes and moments of inertia in atomic units:
                           1         2         3
     Eigenvalues --   656.58098********************
           X            0.99999   0.00231  -0.00227
           Y           -0.00228   0.99990   0.01398
           Z            0.00230  -0.01397   0.99990
 This molecule is an asymmetric top.
 Rotational symmetry number  1.
 Warning -- assumption of classical behavior for rotation
           may cause significant error
 Rotational temperatures (Kelvin)      0.13192     0.00746     0.00738
 Rotational constants (GHZ):           2.74870     0.15545     0.15371
 Zero-point vibrational energy     965030.4 (Joules/Mol)
                                  230.64780 (Kcal/Mol)
 Warning -- explicit consideration of  23 degrees of freedom as
           vibrations may cause significant error
 Vibrational temperatures:     23.30    25.48    43.79    73.24    77.69
          (Kelvin)             93.82   155.94   200.57   221.29   228.18
                              279.46   302.83   339.40   361.41   377.78
                              390.55   449.80   506.40   530.19   620.65
                              689.54   748.31   775.16  1032.00  1053.54
                             1075.09  1114.76  1150.39  1211.27  1233.87
                             1240.31  1275.40  1307.59  1322.52  1344.26
                             1391.63  1420.57  1439.58  1469.67  1488.22
                             1498.41  1533.86  1546.41  1558.91  1574.49
                             1588.68  1609.93  1611.83  1657.30  1695.99
                             1725.82  1763.92  1790.19  1840.27  1852.08
                             1873.87  1888.58  1902.81  1907.83  1914.96
                             1921.33  1932.67  1940.02  1956.67  1977.31
                             2005.87  2011.26  2023.27  2029.53  2034.49
                             2061.37  2068.89  2134.61  2136.06  2140.74
                             2145.79  2150.86  2154.72  2167.31  2172.29
                             2175.42  2192.00  2198.71  2380.53  2382.70
                             4250.05  4258.04  4329.05  4330.22  4332.29
                             4335.24  4336.83  4342.73  4348.91  4355.88
                             4369.51  4374.06  4379.76  4386.57  4387.25
                             4390.94  4397.47  4399.22  4412.57  4418.07
                             4422.14  4434.45  4999.24  5000.52  5110.82
                             5115.14

 Zero-point correction=                           0.367561 (Hartree/Particle)
 Thermal correction to Energy=                    0.384827
 Thermal correction to Enthalpy=                  0.385771
 Thermal correction to Gibbs Free Energy=         0.318972
 Sum of electronic and zero-point Energies=           -544.011121
 Sum of electronic and thermal Energies=              -543.993855
 Sum of electronic and thermal Enthalpies=            -543.992911
 Sum of electronic and thermal Free Energies=         -544.059710

                     E (Thermal)             CV                S
                      KCal/Mol        Cal/Mol-Kelvin    Cal/Mol-Kelvin
 Total                  241.483             61.774            140.591
 Electronic               0.000              0.000              0.000
 Translational            0.889              2.981             41.571
 Rotational               0.889              2.981             32.859
 Vibrational            239.705             55.812             66.161
 Vibration     1          0.593              1.986              7.054
 Vibration     2          0.593              1.986              6.876
 Vibration     3          0.594              1.984              5.801
 Vibration     4          0.595              1.977              4.782
 Vibration     5          0.596              1.976              4.665
 Vibration     6          0.597              1.971              4.293
 Vibration     7          0.606              1.943              3.298
 Vibration     8          0.615              1.914              2.812
 Vibration     9          0.619              1.898              2.625
 Vibration    10          0.621              1.893              2.566
 Vibration    11          0.635              1.848              2.187
 Vibration    12          0.643              1.825              2.040
 Vibration    13          0.655              1.786              1.834
 Vibration    14          0.663              1.761              1.722
 Vibration    15          0.670              1.741              1.645
 Vibration    16          0.675              1.726              1.587
 Vibration    17          0.701              1.650              1.348
 Vibration    18          0.729              1.571              1.157
 Vibration    19          0.741              1.537              1.086
 Vibration    20          0.792              1.402              0.854
 Vibration    21          0.836              1.296              0.712
 Vibration    22          0.875              1.205              0.610
 Vibration    23          0.894              1.164              0.568

 Optimization completed.
    -- Stationary point found.
 Normal termination of Gaussian 16 at Thu Jul 18 06:27:45 2024.
 Gaussian 16:  ES64L-G16RevA.03 25-Dec-2016

 ----------------------------------------------------------------------
 # TD(NStates=10, Root=1) B3LYP/6-31G** SCRF=(Solvent=water) volume pop
 =NPA density=current Geom=AllCheck Guess=Read
 ----------------------------------------------------------------------

 Structure from the checkpoint file:  "KLNPWTHGTVSSEU-UHFFFAOYSA-N_conf_3_2.chk"
 ----------------------------------
 KLNPWTHGTVSSEU-UHFFFAOYSA-N_conf_3
 ----------------------------------
 Charge =  0 Multiplicity = 1

                         Standard orientation:
 ---------------------------------------------------------------------
 Center     Atomic      Atomic             Coordinates (Angstroms)
 Number     Number       Type             X           Y           Z
 ---------------------------------------------------------------------
      1          7           0        6.832991   -0.414407   -0.565717
      2          6           0        5.598774    0.363879   -0.369643
      3          6           0        4.430219   -0.549118    0.005623
      4          6           0        3.122884    0.211532    0.257740
      5          6           0        1.951605   -0.709725    0.626800
      6          6           0        0.637530    0.016273    0.962067
      7          6           0       -0.012105    0.741634   -0.225452
      8          6           0       -1.312347    1.490346    0.120071
      9          6           0       -2.495139    0.625127    0.592652
     10          6           0       -3.016115   -0.364370   -0.459090
     11          6           0       -4.217628   -1.205619    0.003198
     12          6           0       -5.516992   -0.428435    0.250809
     13          7           0       -5.977138    0.255262   -0.968841
     14          1           0        7.592033    0.222018   -0.803016
     15          1           0        6.718034   -1.005198   -1.388510
     16          1           0        5.315351    0.965774   -1.250836
     17          1           0        5.778262    1.076211    0.445942
     18          1           0        4.275197   -1.281165   -0.800711
     19          1           0        4.706364   -1.127101    0.897304
     20          1           0        2.872085    0.798405   -0.635356
     21          1           0        3.276738    0.939015    1.067901
     22          1           0        2.246399   -1.319968    1.491306
     23          1           0        1.774290   -1.417341   -0.196014
     24          1           0        0.820039    0.739026    1.770944
     25          1           0       -0.068148   -0.719244    1.367949
     26          1           0        0.695638    1.471086   -0.638346
     27          1           0       -0.197919    0.017614   -1.030411
     28          1           0       -1.630706    2.062680   -0.762168
     29          1           0       -1.089773    2.234338    0.897502
     30          1           0       -2.219122    0.075165    1.502784
     31          1           0       -3.306779    1.301762    0.888080
     32          1           0       -2.209602   -1.050770   -0.745548
     33          1           0       -3.292492    0.185443   -1.367036
     34          1           0       -4.419116   -1.982178   -0.748404
     35          1           0       -3.957875   -1.740721    0.926800
     36          1           0       -5.355591    0.336365    1.019814
     37          1           0       -6.262577   -1.128246    0.665226
     38          1           0       -6.837306    0.759759   -0.762882
     39          1           0       -6.238513   -0.447855   -1.659058
 ---------------------------------------------------------------------

 SCF Done:  E(RB3LYP) =  -544.378681897     A.U. after    1 cycles

 Excitation energies and oscillator strengths:

 Excited State   1:      Singlet-A      7.3110 eV  169.59 nm  f=0.0125  <S**2>=0.000
      53 -> 54         0.63015
      53 -> 56         0.29140
 This state for optimization and/or second-order correction.
 Total Energy, E(TD-HF/TD-DFT) =  -544.110008914
 Copying the excited state density for this state as the 1-particle RhoCI density.

 Excited State   2:      Singlet-A      7.4768 eV  165.82 nm  f=0.0155  <S**2>=0.000
      52 -> 55         0.68424

 Excited State   3:      Singlet-A      8.1678 eV  151.80 nm  f=0.0021  <S**2>=0.000
      52 -> 54         0.59608
      52 -> 55         0.13353
      52 -> 56        -0.30587
      52 -> 57        -0.11892
      52 -> 58         0.11823

 Excited State   4:      Singlet-A      8.2692 eV  149.93 nm  f=0.0108  <S**2>=0.000
      53 -> 54        -0.31272
      53 -> 56         0.54933
      53 -> 57        -0.20918
      53 -> 58         0.13616

 Excited State   5:      Singlet-A      8.4054 eV  147.51 nm  f=0.0096  <S**2>=0.000
      52 -> 54         0.36492
      52 -> 56         0.42788
      52 -> 57         0.27422
      52 -> 58        -0.28737
      52 -> 62        -0.10606

 Excited State   6:      Singlet-A      8.5295 eV  145.36 nm  f=0.0147  <S**2>=0.000
      53 -> 55        -0.26739
      53 -> 56         0.13638
      53 -> 57         0.34149
      53 -> 58         0.30409
      53 -> 59        -0.29297
      53 -> 60        -0.27501
      53 -> 63         0.15256

 Excited State   7:      Singlet-A      8.5574 eV  144.89 nm  f=0.0025  <S**2>=0.000
      53 -> 55         0.65077
      53 -> 57         0.13088
      53 -> 58         0.16650
      53 -> 60        -0.12023

 Excited State   8:      Singlet-A      8.7245 eV  142.11 nm  f=0.0212  <S**2>=0.000
      52 -> 56         0.14276
      52 -> 58         0.25929
      52 -> 59        -0.34398
      52 -> 60         0.43475
      52 -> 61         0.10062
      52 -> 62         0.11484
      52 -> 63         0.22149

 Excited State   9:      Singlet-A      8.7688 eV  141.39 nm  f=0.0193  <S**2>=0.000
      53 -> 57         0.34300
      53 -> 58         0.20265
      53 -> 59         0.39675
      53 -> 60         0.21147
      53 -> 61        -0.32975

 Excited State  10:      Singlet-A      8.8304 eV  140.41 nm  f=0.0042  <S**2>=0.000
      52 -> 56        -0.42640
      52 -> 57         0.45974
      52 -> 58        -0.18521
      52 -> 60         0.18002
      52 -> 62        -0.11640

 The electronic state is 1-A.
 Alpha  occ. eigenvalues --  -14.30799 -14.30766 -10.20012 -10.19950 -10.17401
 Alpha  occ. eigenvalues --  -10.17394 -10.17379 -10.17337 -10.17314 -10.17246
 Alpha  occ. eigenvalues --  -10.17149 -10.17082 -10.16932  -0.87246  -0.87219
 Alpha  occ. eigenvalues --   -0.80493  -0.78574  -0.75814  -0.72643  -0.68673
 Alpha  occ. eigenvalues --   -0.65216  -0.62571  -0.58775  -0.57668  -0.56350
 Alpha  occ. eigenvalues --   -0.54017  -0.48148  -0.47995  -0.46878  -0.46036
 Alpha  occ. eigenvalues --   -0.44336  -0.44261  -0.43789  -0.42192  -0.41475
 Alpha  occ. eigenvalues --   -0.40582  -0.39063  -0.38449  -0.37419  -0.36287
 Alpha  occ. eigenvalues --   -0.35568  -0.34397  -0.34119  -0.33541  -0.32391
 Alpha  occ. eigenvalues --   -0.32051  -0.31781  -0.31217  -0.30354  -0.29753
 Alpha  occ. eigenvalues --   -0.29559  -0.23553  -0.23365
 Alpha virt. eigenvalues --    0.07860   0.08983   0.09624   0.10816   0.11168
 Alpha virt. eigenvalues --    0.11451   0.12575   0.13121   0.13933   0.14423
 Alpha virt. eigenvalues --    0.14464   0.15662   0.16469   0.17269   0.17779

 Mulliken charges:
               1
     1  N   -0.645887
     2  C   -0.052613
     3  C   -0.171701
     4  C   -0.174195
     5  C   -0.180040
     6  C   -0.170870
     7  C   -0.169831
     8  C   -0.184019
     9  C   -0.148882
    10  C   -0.148070
    11  C   -0.156741
    12  C   -0.076608
    13  N   -0.072903
    14  H    0.250221
    15  H    0.248370
    16  H    0.080656
    17  H    0.099151
    18  H    0.090473
    19  H    0.091982
    20  H    0.094547
    21  H    0.089308
    22  H    0.085754
    23  H    0.086571
    24  H    0.082716
    25  H    0.081264
    26  H    0.084985
    27  H    0.084406
    28  H    0.080444
    29  H    0.082331
    30  H    0.073865
    31  H    0.046955
    32  H    0.075069
    33  H    0.059891
    34  H    0.057570
    35  H    0.062821
    36  H    0.085131
    37  H    0.105872
    38  H    0.029175
    39  H    0.042832
 Sum of Mulliken charges =  -0.00000

 Dipole moment (field-independent basis, Debye):
    X=             -1.8309    Y=              0.7520    Z=             -1.4205  Tot=              2.4363
 Quadrupole moment (field-independent basis, Debye-Ang):
   XX=            -80.9044   YY=            -89.6019   ZZ=            -86.1768
   XY=              7.1325   XZ=            -10.5916   YZ=              0.2063

 Summary of Natural Population Analysis:

                                       Natural Population
                Natural  -----------------------------------------------
    Atom  No    Charge         Core      Valence    Rydberg      Total
 -----------------------------------------------------------------------
      N    1   -0.92900      1.99968     5.91450    0.01482     7.92900
      C    2   -0.25719      1.99936     4.24482    0.01301     6.25719
      C    3   -0.47066      1.99933     4.45981    0.01153     6.47066
      C    4   -0.46268      1.99933     4.45256    0.01079     6.46268
      C    5   -0.45624      1.99934     4.44584    0.01107     6.45624
      C    6   -0.46181      1.99933     4.45126    0.01122     6.46181
      C    7   -0.46449      1.99933     4.45411    0.01104     6.46449
      C    8   -0.45832      1.99934     4.44746    0.01151     6.45832
      C    9   -0.46983      1.99933     4.45830    0.01220     6.46983
      C   10   -0.46460      1.99932     4.45347    0.01181     6.46460
      C   11   -0.47537      1.99932     4.46325    0.01279     6.47537
      C   12   -0.36030      1.99930     4.34194    0.01906     6.36030
      N   13   -0.36845      1.99934     5.34806    0.02105     7.36845
      H   14    0.38916      0.00000     0.60817    0.00267     0.61084
      H   15    0.38241      0.00000     0.61466    0.00294     0.61759
      H   16    0.20149      0.00000     0.79581    0.00270     0.79851
      H   17    0.22271      0.00000     0.77516    0.00212     0.77729
      H   18    0.22707      0.00000     0.77066    0.00227     0.77293
      H   19    0.23143      0.00000     0.76572    0.00284     0.76857
      H   20    0.22861      0.00000     0.76909    0.00230     0.77139
      H   21    0.22804      0.00000     0.76961    0.00234     0.77196
      H   22    0.23332      0.00000     0.76456    0.00213     0.76668
      H   23    0.22687      0.00000     0.77053    0.00259     0.77313
      H   24    0.22502      0.00000     0.77222    0.00276     0.77498
      H   25    0.22707      0.00000     0.76790    0.00503     0.77293
      H   26    0.22977      0.00000     0.76750    0.00273     0.77023
      H   27    0.22333      0.00000     0.77303    0.00364     0.77667
      H   28    0.22979      0.00000     0.76691    0.00330     0.77021
      H   29    0.23138      0.00000     0.76606    0.00255     0.76862
      H   30    0.21931      0.00000     0.77365    0.00704     0.78069
      H   31    0.20277      0.00000     0.78307    0.01415     0.79723
      H   32    0.21991      0.00000     0.77153    0.00856     0.78009
      H   33    0.20979      0.00000     0.77866    0.01155     0.79021
      H   34    0.21435      0.00000     0.76577    0.01988     0.78565
      H   35    0.20880      0.00000     0.77751    0.01369     0.79120
      H   36    0.21337      0.00000     0.76002    0.02660     0.78663
      H   37    0.24845      0.00000     0.71827    0.03328     0.75155
      H   38    0.20291      0.00000     0.71633    0.08076     0.79709
      H   39    0.22111      0.00000     0.69863    0.08027     0.77889
 =======================================================================
   * Total *   -0.00070     25.99167    79.49642    0.51261   106.00070

 Normal termination of Gaussian 16 at Thu Jul 18 06:45:24 2024.
