 Gaussian 16, Revision A.03,

 -------------------------------------------------------
 # opt=CalcFc B3LYP/6-31G** SCRF=(Solvent=water) scf=xqc
 -------------------------------------------------------

 ----------------------------------
 KLNPWTHGTVSSEU-UHFFFAOYSA-N_conf_2
 ----------------------------------
 Symbolic Z-matrix:
 Charge =  0 Multiplicity = 1

 SCF Done:  E(RB3LYP) =  -544.367930839     A.U. after   11 cycles
 SCF Done:  E(RB3LYP) =  -544.371611916     A.U. after    9 cycles
 SCF Done:  E(RB3LYP) =  -544.371796150     A.U. after    8 cycles
 SCF Done:  E(RB3LYP) =  -544.371813142     A.U. after    8 cycles
 SCF Done:  E(RB3LYP) =  -544.371819519     A.U. after    7 cycles
 SCF Done:  E(RB3LYP) =  -544.371822997     A.U. after    7 cycles
 SCF Done:  E(RB3LYP) =  -544.371822773     A.U. after    7 cycles
 SCF Done:  E(RB3LYP) =  -544.371822876     A.U. after    5 cycles
 Optimization completed.
    -- Stationary point found.
 Normal termination of Gaussian 16 at Thu Jul 18 06:05:53 2024.

 ----------------------------------------------------------------------
 # freq B3LYP/6-31G** SCRF=(Solvent=water) volume NMR pop=NPA density=c
 urrent Geom=AllCheck Guess=Read
 ----------------------------------------------------------------------

 Structure from the checkpoint file:  "KLNPWTHGTVSSEU-UHFFFAOYSA-N_conf_2_1.chk"
 ----------------------------------
 KLNPWTHGTVSSEU-UHFFFAOYSA-N_conf_2
 ----------------------------------
 Charge =  0 Multiplicity = 1

 SCF Done:  E(RB3LYP) =  -544.371822876     A.U. after    1 cycles

      1  N    Isotropic =   232.6855   Anisotropy =    32.7783

      2  C    Isotropic =   148.6319   Anisotropy =    35.7216

      3  C    Isotropic =   161.5782   Anisotropy =    27.0380

      4  C    Isotropic =   163.1401   Anisotropy =    13.4879

      5  C    Isotropic =   165.6842   Anisotropy =    18.5235

      6  C    Isotropic =   163.0975   Anisotropy =    18.8060

      7  C    Isotropic =   160.8789   Anisotropy =    20.7715

      8  C    Isotropic =   158.9242   Anisotropy =    21.9601

      9  C    Isotropic =   161.4818   Anisotropy =    14.9996

     10  C    Isotropic =   159.1163   Anisotropy =    19.8113

     11  C    Isotropic =   159.4444   Anisotropy =    14.8182

     12  C    Isotropic =   143.3387   Anisotropy =    20.1054

     13  N    Isotropic =   230.8119   Anisotropy =    34.8929

     14  H    Isotropic =    31.6138   Anisotropy =    12.8475

     15  H    Isotropic =    31.0104   Anisotropy =    15.3593

     16  H    Isotropic =    29.0560   Anisotropy =     6.0141

     17  H    Isotropic =    28.9648   Anisotropy =     6.6119

     18  H    Isotropic =    30.5737   Anisotropy =     7.7051

     19  H    Isotropic =    30.0327   Anisotropy =     4.2095

     20  H    Isotropic =    30.2059   Anisotropy =     8.3643

     21  H    Isotropic =    30.3782   Anisotropy =     7.9687

     22  H    Isotropic =    30.6043   Anisotropy =     5.0808

     23  H    Isotropic =    30.1914   Anisotropy =     7.1619

     24  H    Isotropic =    30.8485   Anisotropy =     5.9354

     25  H    Isotropic =    29.8159   Anisotropy =     7.5677

     26  H    Isotropic =    30.6120   Anisotropy =     5.3955

     27  H    Isotropic =    29.8154   Anisotropy =     8.2609

     28  H    Isotropic =    30.7673   Anisotropy =     6.3260

     29  H    Isotropic =    29.9816   Anisotropy =     7.5826

     30  H    Isotropic =    29.7318   Anisotropy =     7.3602

     31  H    Isotropic =    30.0390   Anisotropy =     8.4229

     32  H    Isotropic =    30.0772   Anisotropy =     7.6891

     33  H    Isotropic =    30.2173   Anisotropy =     5.8846

     34  H    Isotropic =    30.2968   Anisotropy =     8.3159

     35  H    Isotropic =    30.2385   Anisotropy =     6.1441

     36  H    Isotropic =    28.5100   Anisotropy =     8.8509

     37  H    Isotropic =    29.2664   Anisotropy =     7.2008

     38  H    Isotropic =    31.6941   Anisotropy =    10.7037

     39  H    Isotropic =    31.0660   Anisotropy =    15.8367

  Exact polarizability: 184.322  -0.187 167.032   0.314   1.505 159.046
 Approx polarizability: 182.515  -0.366 176.967   0.965   2.094 174.652

                      1                      2                      3
                      A                      A                      A
 Frequencies --     21.5652                24.3366                31.9402
 Red. masses --      3.4750                 3.4458                 3.3674
 Frc consts  --      0.0010                 0.0012                 0.0020
 IR Inten    --      0.6094                 0.8949                 0.3120

                      4                      5                      6
                      A                      A                      A
 Frequencies --     50.0126                70.7838                78.6828
 Red. masses --      2.8626                 2.2740                 2.1190
 Frc consts  --      0.0042                 0.0067                 0.0077
 IR Inten    --      0.6259                 6.6103                 0.9159

                      7                      8                      9
                      A                      A                      A
 Frequencies --     91.5653               116.9172               146.3025
 Red. masses --      2.6210                 3.0248                 2.6111
 Frc consts  --      0.0129                 0.0244                 0.0329
 IR Inten    --      4.9768                 0.2860                 3.3101

                     10                     11                     12
                      A                      A                      A
 Frequencies --    185.1947               208.9058               234.1561
 Red. masses --      2.1902                 2.4461                 2.3003
 Frc consts  --      0.0443                 0.0629                 0.0743
 IR Inten    --      2.0458                 0.7563                 1.9971

                     13                     14                     15
                      A                      A                      A
 Frequencies --    244.5910               263.4032               271.0652
 Red. masses --      1.8454                 1.2113                 1.2020
 Frc consts  --      0.0650                 0.0495                 0.0520
 IR Inten    --      3.3084                95.3321                23.7691

                     16                     17                     18
                      A                      A                      A
 Frequencies --    301.9235               308.0868               331.7285
 Red. masses --      1.8571                 1.9617                 2.3614
 Frc consts  --      0.0997                 0.1097                 0.1531
 IR Inten    --      4.8482                 9.0545                13.7964

                     19                     20                     21
                      A                      A                      A
 Frequencies --    372.7864               430.1234               470.2328
 Red. masses --      2.4470                 2.1574                 1.7844
 Frc consts  --      0.2004                 0.2352                 0.2325
 IR Inten    --      6.4665                 1.5386                11.7431

                     22                     23                     24
                      A                      A                      A
 Frequencies --    496.6481               534.2857               722.5971
 Red. masses --      2.5605                 2.3765                 1.2181
 Frc consts  --      0.3721                 0.3997                 0.3747
 IR Inten    --      2.9574                 0.4608                10.2833

                     25                     26                     27
                      A                      A                      A
 Frequencies --    740.4677               767.7853               780.8613
 Red. masses --      1.2752                 1.7452                 1.8222
 Frc consts  --      0.4120                 0.6061                 0.6546
 IR Inten    --      0.4549                 7.2145                 8.8612

                     28                     29                     30
                      A                      A                      A
 Frequencies --    812.9597               837.6744               845.9163
 Red. masses --      1.4813                 1.4551                 1.7963
 Frc consts  --      0.5768                 0.6016                 0.7573
 IR Inten    --      3.7624                64.9763                24.1564

                     31                     32                     33
                      A                      A                      A
 Frequencies --    859.9111               871.5997               903.3874
 Red. masses --      2.0587                 1.6334                 1.4165
 Frc consts  --      0.8969                 0.7311                 0.6811
 IR Inten    --     13.2131                31.8681               110.8694

                     34                     35                     36
                      A                      A                      A
 Frequencies --    920.2608               925.6668               963.0504
 Red. masses --      1.8154                 1.6362                 1.5834
 Frc consts  --      0.9058                 0.8260                 0.8652
 IR Inten    --     64.1081                61.2332                13.5137

                     37                     38                     39
                      A                      A                      A
 Frequencies --    970.9801               991.5136              1011.7621
 Red. masses --      2.1721                 2.1434                 1.5559
 Frc consts  --      1.2066                 1.2415                 0.9384
 IR Inten    --      6.2832                 1.8974                 5.2973

                     40                     41                     42
                      A                      A                      A
 Frequencies --   1032.0825              1050.9888              1074.2735
 Red. masses --      1.6997                 2.3306                 2.5386
 Frc consts  --      1.0667                 1.5168                 1.7262
 IR Inten    --     27.4510                 1.8154                 9.4943

                     43                     44                     45
                      A                      A                      A
 Frequencies --   1077.8868              1086.8852              1093.1623
 Red. masses --      1.7922                 1.7050                 1.8151
 Frc consts  --      1.2268                 1.1867                 1.2780
 IR Inten    --      6.1327                 1.6561                 2.4668

                     46                     47                     48
                      A                      A                      A
 Frequencies --   1106.4372              1118.7286              1142.6745
 Red. masses --      2.0536                 1.7800                 1.6923
 Frc consts  --      1.4812                 1.3125                 1.3019
 IR Inten    --      4.1620                 2.9310                 5.2034

                     49                     50                     51
                      A                      A                      A
 Frequencies --   1146.7203              1166.0736              1184.1113
 Red. masses --      1.4558                 1.3963                 1.4043
 Frc consts  --      1.1279                 1.1186                 1.1601
 IR Inten    --      6.2106                 0.7142                 5.6313

                     52                     53                     54
                      A                      A                      A
 Frequencies --   1231.4807              1249.4425              1266.5944
 Red. masses --      1.3767                 1.3548                 1.3245
 Frc consts  --      1.2301                 1.2462                 1.2519
 IR Inten    --      0.1148                 5.1957                 4.9673

                     55                     56                     57
                      A                      A                      A
 Frequencies --   1283.4498              1306.4227              1312.7386
 Red. masses --      1.2897                 1.1662                 1.2120
 Frc consts  --      1.2517                 1.1727                 1.2305
 IR Inten    --      3.5510                 1.8511                 3.8553

                     58                     59                     60
                      A                      A                      A
 Frequencies --   1316.2208              1333.1921              1338.6065
 Red. masses --      1.2707                 1.1496                 1.1856
 Frc consts  --      1.2970                 1.2039                 1.2517
 IR Inten    --      1.0888                 7.4110                 0.3100

                     61                     62                     63
                      A                      A                      A
 Frequencies --   1340.7940              1347.8809              1355.5933
 Red. masses --      1.1295                 1.2109                 1.1974
 Frc consts  --      1.1963                 1.2962                 1.2964
 IR Inten    --      0.5943                 4.9378                 2.6944

                     64                     65                     66
                      A                      A                      A
 Frequencies --   1368.4552              1373.7598              1389.1840
 Red. masses --      1.3227                 1.3321                 1.4600
 Frc consts  --      1.4594                 1.4812                 1.6601
 IR Inten    --      8.7165                 0.2307                 5.3404

                     67                     68                     69
                      A                      A                      A
 Frequencies --   1394.7779              1397.8555              1410.0703
 Red. masses --      1.4368                 1.4198                 1.4950
 Frc consts  --      1.6469                 1.6346                 1.7514
 IR Inten    --     13.0748                 2.3801                 0.1310

                     70                     71                     72
                      A                      A                      A
 Frequencies --   1415.5846              1434.4010              1438.9444
 Red. masses --      1.4722                 1.4198                 1.4755
 Frc consts  --      1.7382                 1.7212                 1.8000
 IR Inten    --      0.2035                18.0258                 8.7107

                     73                     74                     75
                      A                      A                      A
 Frequencies --   1483.1568              1487.1073              1489.2735
 Red. masses --      1.0816                 1.0813                 1.0881
 Frc consts  --      1.4019                 1.4090                 1.4219
 IR Inten    --      0.4557                 3.4437                 2.6232

                     76                     77                     78
                      A                      A                      A
 Frequencies --   1493.0108              1495.2526              1500.5763
 Red. masses --      1.0855                 1.0861                 1.0949
 Frc consts  --      1.4257                 1.4307                 1.4525
 IR Inten    --      2.6925                 5.9913                 4.3088

                     79                     80                     81
                      A                      A                      A
 Frequencies --   1503.6299              1508.0179              1509.6584
 Red. masses --      1.0885                 1.0978                 1.0970
 Frc consts  --      1.4500                 1.4709                 1.4730
 IR Inten    --      2.4514                 3.0316                 4.6651

                     82                     83                     84
                      A                      A                      A
 Frequencies --   1520.2986              1525.8790              1653.7604
 Red. masses --      1.0883                 1.0901                 1.0871
 Frc consts  --      1.4821                 1.4953                 1.7517
 IR Inten    --      2.4708                 1.0151                40.3196

                     85                     86                     87
                      A                      A                      A
 Frequencies --   1656.8266              2949.4709              2952.5016
 Red. masses --      1.0873                 1.0731                 1.0725
 Frc consts  --      1.7585                 5.5001                 5.5084
 IR Inten    --     35.3688               121.1079               141.9582

                     88                     89                     90
                      A                      A                      A
 Frequencies --   3004.6847              3010.2870              3012.3486
 Red. masses --      1.0646                 1.0665                 1.0625
 Frc consts  --      5.6627                 5.6940                 5.6807
 IR Inten    --     10.1747                26.7352                35.9446

                     91                     92                     93
                      A                      A                      A
 Frequencies --   3014.0169              3014.6934              3022.4161
 Red. masses --      1.0639                 1.0629                 1.0642
 Frc consts  --      5.6944                 5.6913                 5.7277
 IR Inten    --     32.2261                70.3949               118.0591

                     94                     95                     96
                      A                      A                      A
 Frequencies --   3025.4921              3027.8566              3033.4526
 Red. masses --      1.0697                 1.0653                 1.0670
 Frc consts  --      5.7690                 5.7545                 5.7848
 IR Inten    --     99.4078                17.5514                26.2101

                     97                     98                     99
                      A                      A                      A
 Frequencies --   3040.4286              3045.4353              3050.8055
 Red. masses --      1.0900                 1.0950                 1.0975
 Frc consts  --      5.9366                 5.9835                 6.0186
 IR Inten    --     29.9063                 5.6314                24.3023

                    100                    101                    102
                      A                      A                      A
 Frequencies --   3051.8954              3054.3019              3060.0091
 Red. masses --      1.0976                 1.0910                 1.0889
 Frc consts  --      6.0234                 5.9967                 6.0074
 IR Inten    --     74.2405                49.9288                71.0280

                    103                    104                    105
                      A                      A                      A
 Frequencies --   3066.4534              3071.8021              3074.2485
 Red. masses --      1.1012                 1.1018                 1.0989
 Frc consts  --      6.1006                 6.1253                 6.1191
 IR Inten    --    242.7221                83.2041                82.6936

                    106                    107                    108
                      A                      A                      A
 Frequencies --   3077.6341              3090.6570              3474.3929
 Red. masses --      1.0984                 1.0950                 1.0506
 Frc consts  --      6.1296                 6.1626                 7.4724
 IR Inten    --    165.0129                73.9855                 1.4355

                    109                    110                    111
                      A                      A                      A
 Frequencies --   3474.8862              3552.8411              3552.9273
 Red. masses --      1.0510                 1.0917                 1.0913
 Frc consts  --      7.4768                 8.1187                 8.1163
 IR Inten    --      2.3146                 0.2636                 0.1906

 - Thermochemistry -
 -------------------
 Temperature   298.150 Kelvin.  Pressure   1.00000 Atm.
 Atom     1 has atomic number  7 and mass  14.00307

 Molecular mass:   186.20960 amu.
 Principal axes and moments of inertia in atomic units:
                           1         2         3
     Eigenvalues --  1363.511788769.544529472.96503
           X            0.99999   0.00233  -0.00322
           Y           -0.00232   0.99998   0.00542
           Z            0.00323  -0.00541   0.99998
 This molecule is an asymmetric top.
 Rotational symmetry number  1.
 Warning -- assumption of classical behavior for rotation
           may cause significant error
 Rotational temperatures (Kelvin)      0.06352     0.00988     0.00914
 Rotational constants (GHZ):           1.32360     0.20580     0.19051
 Zero-point vibrational energy     965562.8 (Joules/Mol)
                                  230.77504 (Kcal/Mol)
 Warning -- explicit consideration of  23 degrees of freedom as
           vibrations may cause significant error
 Vibrational temperatures:     31.03    35.01    45.95    71.96   101.84
          (Kelvin)            113.21   131.74   168.22   210.50   266.45
                              300.57   336.90   351.91   378.98   390.00
                              434.40   443.27   477.28   536.36   618.85
                              676.56   714.57   768.72  1039.66  1065.37
                             1104.67  1123.49  1169.67  1205.23  1217.08
                             1237.22  1254.04  1299.77  1324.05  1331.83
                             1385.61  1397.02  1426.57  1455.70  1484.94
                             1512.14  1545.64  1550.84  1563.79  1572.82
                             1591.92  1609.60  1644.05  1649.87  1677.72
                             1703.67  1771.83  1797.67  1822.35  1846.60
                             1879.65  1888.74  1893.75  1918.17  1925.96
                             1929.10  1939.30  1950.40  1968.90  1976.53
                             1998.73  2006.77  2011.20  2028.78  2036.71
                             2063.78  2070.32  2133.93  2139.62  2142.73
                             2148.11  2151.34  2158.99  2163.39  2169.70
                             2172.06  2187.37  2195.40  2379.39  2383.80
                             4243.63  4247.99  4323.07  4331.13  4334.10
                             4336.50  4337.47  4348.58  4353.01  4356.41
                             4364.46  4374.50  4381.70  4389.43  4391.00
                             4394.46  4402.67  4411.94  4419.64  4423.16
                             4428.03  4446.77  4998.88  4999.59  5111.75
                             5111.87

 Zero-point correction=                           0.367763 (Hartree/Particle)
 Thermal correction to Energy=                    0.384891
 Thermal correction to Enthalpy=                  0.385836
 Thermal correction to Gibbs Free Energy=         0.319980
 Sum of electronic and zero-point Energies=           -544.004059
 Sum of electronic and thermal Energies=              -543.986931
 Sum of electronic and thermal Enthalpies=            -543.985987
 Sum of electronic and thermal Free Energies=         -544.051843

                     E (Thermal)             CV                S
                      KCal/Mol        Cal/Mol-Kelvin    Cal/Mol-Kelvin
 Total                  241.523             61.720            138.605
 Electronic               0.000              0.000              0.000
 Translational            0.889              2.981             41.571
 Rotational               0.889              2.981             33.093
 Vibrational            239.746             55.759             63.940
 Vibration     1          0.593              1.985              6.485
 Vibration     2          0.593              1.985              6.245
 Vibration     3          0.594              1.983              5.705
 Vibration     4          0.595              1.978              4.817
 Vibration     5          0.598              1.968              4.131
 Vibration     6          0.600              1.964              3.923
 Vibration     7          0.602              1.955              3.626
 Vibration     8          0.608              1.935              3.151
 Vibration     9          0.617              1.907              2.720
 Vibration    10          0.631              1.860              2.275
 Vibration    11          0.642              1.827              2.053
 Vibration    12          0.654              1.789              1.847
 Vibration    13          0.660              1.772              1.769
 Vibration    14          0.670              1.740              1.639
 Vibration    15          0.675              1.727              1.589
 Vibration    16          0.694              1.670              1.406
 Vibration    17          0.698              1.658              1.373
 Vibration    18          0.714              1.612              1.252
 Vibration    19          0.744              1.528              1.068
 Vibration    20          0.791              1.405              0.858
 Vibration    21          0.827              1.316              0.737
 Vibration    22          0.852              1.257              0.667
 Vibration    23          0.889              1.174              0.578

 Optimization completed.
    -- Stationary point found.
 Normal termination of Gaussian 16 at Thu Jul 18 06:24:01 2024.
 Gaussian 16:  ES64L-G16RevA.03 25-Dec-2016

 ----------------------------------------------------------------------
 # TD(NStates=10, Root=1) B3LYP/6-31G** SCRF=(Solvent=water) volume pop
 =NPA density=current Geom=AllCheck Guess=Read
 ----------------------------------------------------------------------

 Structure from the checkpoint file:  "KLNPWTHGTVSSEU-UHFFFAOYSA-N_conf_2_2.chk"
 ----------------------------------
 KLNPWTHGTVSSEU-UHFFFAOYSA-N_conf_2
 ----------------------------------
 Charge =  0 Multiplicity = 1

                         Standard orientation:
 ---------------------------------------------------------------------
 Center     Atomic      Atomic             Coordinates (Angstroms)
 Number     Number       Type             X           Y           Z
 ---------------------------------------------------------------------
      1          7           0       -5.291892    2.018645   -0.370420
      2          6           0       -4.437501    1.090187    0.387736
      3          6           0       -4.263595   -0.225784   -0.374804
      4          6           0       -3.429071   -1.282732    0.368181
      5          6           0       -1.957945   -0.917664    0.640104
      6          6           0       -1.106680   -0.729106   -0.624215
      7          6           0        0.371500   -0.389713   -0.358389
      8          6           0        1.187100   -1.536408    0.256761
      9          6           0        2.654937   -1.213014    0.591044
     10          6           0        3.559600   -0.880848   -0.618548
     11          6           0        3.687790    0.607083   -1.009144
     12          6           0        4.738554    1.410276   -0.231949
     13          7           0        4.414584    1.540542    1.198270
     14          1           0       -6.235041    1.634140   -0.412505
     15          1           0       -5.383891    2.888038    0.152068
     16          1           0       -4.819210    0.868402    1.400268
     17          1           0       -3.463766    1.575364    0.524428
     18          1           0       -5.259935   -0.647266   -0.569394
     19          1           0       -3.830213   -0.009028   -1.358588
     20          1           0       -3.917761   -1.505054    1.326642
     21          1           0       -3.457383   -2.217423   -0.207889
     22          1           0       -1.903744   -0.004550    1.248645
     23          1           0       -1.524268   -1.713127    1.258352
     24          1           0       -1.164086   -1.640512   -1.237518
     25          1           0       -1.539882    0.072884   -1.234870
     26          1           0        0.426682    0.491139    0.298038
     27          1           0        0.830824   -0.089980   -1.308135
     28          1           0        1.158909   -2.395643   -0.430035
     29          1           0        0.698363   -1.873884    1.179725
     30          1           0        2.704779   -0.392404    1.314702
     31          1           0        3.070918   -2.090122    1.103911
     32          1           0        4.570894   -1.262315   -0.424356
     33          1           0        3.196677   -1.445306   -1.488599
     34          1           0        3.963453    0.671036   -2.069860
     35          1           0        2.717293    1.112225   -0.922815
     36          1           0        4.866083    2.385085   -0.733990
     37          1           0        5.705946    0.896132   -0.307172
     38          1           0        3.561736    2.090781    1.290903
     39          1           0        5.139647    2.093404    1.652430
 ---------------------------------------------------------------------

 SCF Done:  E(RB3LYP) =  -544.371822876     A.U. after    1 cycles

 Excitation energies and oscillator strengths:

 Excited State   1:      Singlet-A      7.2844 eV  170.21 nm  f=0.0167  <S**2>=0.000
      53 -> 54         0.58522
      53 -> 55        -0.34735
      53 -> 57        -0.13843
 This state for optimization and/or second-order correction.
 Total Energy, E(TD-HF/TD-DFT) =  -544.104127117
 Copying the excited state density for this state as the 1-particle RhoCI density.

 Excited State   2:      Singlet-A      7.4624 eV  166.15 nm  f=0.0134  <S**2>=0.000
      52 -> 54         0.29349
      52 -> 55         0.50294
      52 -> 56         0.39315

 Excited State   3:      Singlet-A      8.0613 eV  153.80 nm  f=0.0069  <S**2>=0.000
      52 -> 54        -0.30455
      52 -> 55        -0.26508
      52 -> 56         0.53328
      52 -> 57         0.19499

 Excited State   4:      Singlet-A      8.1830 eV  151.51 nm  f=0.0073  <S**2>=0.000
      53 -> 54         0.39037
      53 -> 55         0.49911
      53 -> 56        -0.19481
      53 -> 57         0.19952
      53 -> 58         0.10508

 Excited State   5:      Singlet-A      8.2843 eV  149.66 nm  f=0.0137  <S**2>=0.000
      53 -> 55        -0.23861
      53 -> 56        -0.13382
      53 -> 57         0.54597
      53 -> 58        -0.10738
      53 -> 59        -0.19893
      53 -> 60         0.25535

 Excited State   6:      Singlet-A      8.3288 eV  148.86 nm  f=0.0024  <S**2>=0.000
      52 -> 54         0.55594
      52 -> 55        -0.40100
      52 -> 58         0.10339

 Excited State   7:      Singlet-A      8.5204 eV  145.51 nm  f=0.0118  <S**2>=0.000
      53 -> 55        -0.26575
      53 -> 56        -0.31880
      53 -> 57         0.10551
      53 -> 58         0.34410
      53 -> 59         0.29877
      53 -> 60        -0.24682
      53 -> 61         0.15190

 Excited State   8:      Singlet-A      8.5960 eV  144.24 nm  f=0.0222  <S**2>=0.000
      52 -> 54        -0.10567
      52 -> 57        -0.11172
      52 -> 58         0.52094
      52 -> 59         0.21454
      52 -> 60         0.30170
      52 -> 61        -0.18155
      52 -> 65         0.11705

 Excited State   9:      Singlet-A      8.6740 eV  142.94 nm  f=0.0008  <S**2>=0.000
      53 -> 56         0.56910
      53 -> 57         0.25216
      53 -> 58         0.27959
      53 -> 61         0.11979

 Excited State  10:      Singlet-A      8.7341 eV  141.95 nm  f=0.0327  <S**2>=0.000
      53 -> 56         0.10300
      53 -> 57         0.18576
      53 -> 58        -0.38064
      53 -> 59         0.48942
      53 -> 61        -0.11871
      53 -> 62        -0.17892

 The electronic state is 1-A.
 Alpha  occ. eigenvalues --  -14.30795 -14.30790 -10.20003 -10.19950 -10.17531
 Alpha  occ. eigenvalues --  -10.17316 -10.17302 -10.17254 -10.17227 -10.17167
 Alpha  occ. eigenvalues --  -10.17149 -10.17042 -10.16730  -0.87239  -0.87211
 Alpha  occ. eigenvalues --   -0.80337  -0.78366  -0.75624  -0.72389  -0.68900
 Alpha  occ. eigenvalues --   -0.65313  -0.62305  -0.59824  -0.57118  -0.55413
 Alpha  occ. eigenvalues --   -0.54565  -0.48063  -0.47488  -0.46269  -0.46036
 Alpha  occ. eigenvalues --   -0.45127  -0.44362  -0.43109  -0.42296  -0.40892
 Alpha  occ. eigenvalues --   -0.40687  -0.39492  -0.38192  -0.37518  -0.36845
 Alpha  occ. eigenvalues --   -0.35438  -0.34480  -0.34154  -0.33252  -0.32429
 Alpha  occ. eigenvalues --   -0.31686  -0.31392  -0.31059  -0.30794  -0.29493
 Alpha  occ. eigenvalues --   -0.29163  -0.23552  -0.23174
 Alpha virt. eigenvalues --    0.08172   0.08559   0.09755   0.10448   0.11027
 Alpha virt. eigenvalues --    0.11495   0.12493   0.13374   0.13432   0.14457
 Alpha virt. eigenvalues --    0.15332   0.15705   0.16674   0.17504   0.17612

 Mulliken charges:
               1
     1  N   -0.647133
     2  C   -0.047175
     3  C   -0.172509
     4  C   -0.186576
     5  C   -0.175895
     6  C   -0.178389
     7  C   -0.163983
     8  C   -0.172968
     9  C   -0.165069
    10  C   -0.167786
    11  C   -0.158809
    12  C   -0.082888
    13  N   -0.058644
    14  H    0.248214
    15  H    0.250124
    16  H    0.079460
    17  H    0.103302
    18  H    0.088710
    19  H    0.095431
    20  H    0.087977
    21  H    0.089244
    22  H    0.090949
    23  H    0.091561
    24  H    0.084994
    25  H    0.091018
    26  H    0.057466
    27  H    0.090512
    28  H    0.087850
    29  H    0.087540
    30  H    0.052335
    31  H    0.081644
    32  H    0.086225
    33  H    0.086325
    34  H    0.061127
    35  H    0.075456
    36  H    0.110107
    37  H    0.106278
    38  H   -0.020749
    39  H    0.014719
 Sum of Mulliken charges =  -0.00000

 Dipole moment (field-independent basis, Debye):
    X=              0.7212    Y=             -0.2529    Z=              0.8584  Tot=              1.1493
 Quadrupole moment (field-independent basis, Debye-Ang):
   XX=            -70.5399   YY=            -88.2271   ZZ=            -90.4807
   XY=              0.4396   XZ=             -9.6345   YZ=              2.1425

 Summary of Natural Population Analysis:

                                       Natural Population
                Natural  -----------------------------------------------
    Atom  No    Charge         Core      Valence    Rydberg      Total
 -----------------------------------------------------------------------
      N    1   -0.92843      1.99968     5.91393    0.01482     7.92843
      C    2   -0.26181      1.99936     4.24928    0.01317     6.26181
      C    3   -0.47697      1.99933     4.46571    0.01194     6.47697
      C    4   -0.46183      1.99934     4.45111    0.01138     6.46183
      C    5   -0.46474      1.99933     4.45441    0.01099     6.46474
      C    6   -0.46185      1.99934     4.45122    0.01130     6.46185
      C    7   -0.46214      1.99933     4.45142    0.01139     6.46214
      C    8   -0.45967      1.99933     4.44915    0.01119     6.45967
      C    9   -0.46115      1.99932     4.45034    0.01148     6.46115
      C   10   -0.47130      1.99933     4.45946    0.01251     6.47130
      C   11   -0.47818      1.99931     4.46590    0.01297     6.47818
      C   12   -0.35394      1.99930     4.33654    0.01810     6.35394
      N   13   -0.39152      1.99934     5.36904    0.02314     7.39152
      H   14    0.38218      0.00000     0.61486    0.00296     0.61782
      H   15    0.38916      0.00000     0.60816    0.00267     0.61084
      H   16    0.20068      0.00000     0.79657    0.00275     0.79932
      H   17    0.22275      0.00000     0.77524    0.00201     0.77725
      H   18    0.23393      0.00000     0.76405    0.00202     0.76607
      H   19    0.23174      0.00000     0.76570    0.00256     0.76826
      H   20    0.23467      0.00000     0.76321    0.00211     0.76533
      H   21    0.23579      0.00000     0.76214    0.00208     0.76421
      H   22    0.22658      0.00000     0.77115    0.00228     0.77342
      H   23    0.23430      0.00000     0.76377    0.00193     0.76570
      H   24    0.22616      0.00000     0.77144    0.00240     0.77384
      H   25    0.23361      0.00000     0.76448    0.00190     0.76639
      H   26    0.20646      0.00000     0.77986    0.01368     0.79354
      H   27    0.23126      0.00000     0.76658    0.00216     0.76874
      H   28    0.22740      0.00000     0.77012    0.00248     0.77260
      H   29    0.22935      0.00000     0.76790    0.00275     0.77065
      H   30    0.20073      0.00000     0.78486    0.01441     0.79927
      H   31    0.23572      0.00000     0.76055    0.00373     0.76428
      H   32    0.23378      0.00000     0.76130    0.00492     0.76622
      H   33    0.23158      0.00000     0.76271    0.00571     0.76842
      H   34    0.20921      0.00000     0.77775    0.01305     0.79079
      H   35    0.21798      0.00000     0.76421    0.01781     0.78202
      H   36    0.25187      0.00000     0.71548    0.03265     0.74813
      H   37    0.23096      0.00000     0.75016    0.01888     0.76904
      H   38    0.17746      0.00000     0.73185    0.09068     0.82254
      H   39    0.19786      0.00000     0.72310    0.07904     0.80214
 =======================================================================
   * Total *   -0.00038     25.99163    79.50472    0.50402   106.00038

 Normal termination of Gaussian 16 at Thu Jul 18 06:44:09 2024.
