 Gaussian 16, Revision A.03,

 -------------------------------------------------------
 # opt=CalcFc B3LYP/6-31G** SCRF=(Solvent=water) scf=xqc
 -------------------------------------------------------

 ----------------------------------
 KLNPWTHGTVSSEU-UHFFFAOYSA-N_conf_1
 ----------------------------------
 Symbolic Z-matrix:
 Charge =  0 Multiplicity = 1

 SCF Done:  E(RB3LYP) =  -544.375971728     A.U. after   10 cycles
 SCF Done:  E(RB3LYP) =  -544.379465500     A.U. after    9 cycles
 SCF Done:  E(RB3LYP) =  -544.379610987     A.U. after    9 cycles
 SCF Done:  E(RB3LYP) =  -544.379617905     A.U. after    8 cycles
 SCF Done:  E(RB3LYP) =  -544.379628127     A.U. after    8 cycles
 SCF Done:  E(RB3LYP) =  -544.379628634     A.U. after    7 cycles
 SCF Done:  E(RB3LYP) =  -544.379628641     A.U. after    5 cycles
 Optimization completed.
    -- Stationary point found.
 Normal termination of Gaussian 16 at Thu Jul 18 06:05:14 2024.

 ----------------------------------------------------------------------
 # freq B3LYP/6-31G** SCRF=(Solvent=water) volume NMR pop=NPA density=c
 urrent Geom=AllCheck Guess=Read
 ----------------------------------------------------------------------

 Structure from the checkpoint file:  "KLNPWTHGTVSSEU-UHFFFAOYSA-N_conf_1_1.chk"
 ----------------------------------
 KLNPWTHGTVSSEU-UHFFFAOYSA-N_conf_1
 ----------------------------------
 Charge =  0 Multiplicity = 1

 SCF Done:  E(RB3LYP) =  -544.379628641     A.U. after    1 cycles

      1  N    Isotropic =   235.3000   Anisotropy =    27.5217

      2  C    Isotropic =   147.9227   Anisotropy =    24.6586

      3  C    Isotropic =   160.9483   Anisotropy =    18.9806

      4  C    Isotropic =   167.3578   Anisotropy =    16.7464

      5  C    Isotropic =   161.2645   Anisotropy =    12.4853

      6  C    Isotropic =   163.5308   Anisotropy =    26.5934

      7  C    Isotropic =   161.3713   Anisotropy =    26.5080

      8  C    Isotropic =   157.5466   Anisotropy =    33.8039

      9  C    Isotropic =   159.4355   Anisotropy =    28.1515

     10  C    Isotropic =   160.7724   Anisotropy =    22.9703

     11  C    Isotropic =   157.4857   Anisotropy =    24.7712

     12  C    Isotropic =   147.9454   Anisotropy =    36.5272

     13  N    Isotropic =   233.4781   Anisotropy =    32.2285

     14  H    Isotropic =    31.2548   Anisotropy =    11.1491

     15  H    Isotropic =    31.0784   Anisotropy =    15.7887

     16  H    Isotropic =    29.1387   Anisotropy =     7.5490

     17  H    Isotropic =    28.8911   Anisotropy =     7.2122

     18  H    Isotropic =    30.6303   Anisotropy =     7.1802

     19  H    Isotropic =    30.0694   Anisotropy =     6.7197

     20  H    Isotropic =    30.2374   Anisotropy =     7.5159

     21  H    Isotropic =    30.4891   Anisotropy =     5.5139

     22  H    Isotropic =    30.2031   Anisotropy =     7.9725

     23  H    Isotropic =    30.3056   Anisotropy =     8.4397

     24  H    Isotropic =    30.5007   Anisotropy =     7.3793

     25  H    Isotropic =    30.1967   Anisotropy =     4.6827

     26  H    Isotropic =    30.7557   Anisotropy =     5.0901

     27  H    Isotropic =    30.1652   Anisotropy =     6.6141

     28  H    Isotropic =    30.5537   Anisotropy =     4.2613

     29  H    Isotropic =    30.5420   Anisotropy =     4.8333

     30  H    Isotropic =    30.6326   Anisotropy =     4.6209

     31  H    Isotropic =    30.2467   Anisotropy =     5.7562

     32  H    Isotropic =    30.4168   Anisotropy =     5.4626

     33  H    Isotropic =    30.2749   Anisotropy =     6.6574

     34  H    Isotropic =    30.4287   Anisotropy =     5.0626

     35  H    Isotropic =    30.1659   Anisotropy =     7.3431

     36  H    Isotropic =    29.4724   Anisotropy =     5.0304

     37  H    Isotropic =    28.5408   Anisotropy =     7.7615

     38  H    Isotropic =    31.6919   Anisotropy =    12.2301

     39  H    Isotropic =    31.0871   Anisotropy =    15.2967

  Exact polarizability: 181.740   0.059 168.131  -0.779   1.885 160.288
 Approx polarizability: 179.268  -0.338 176.949  -1.137   2.875 177.025

                      1                      2                      3
                      A                      A                      A
 Frequencies --     18.1925                29.3729                49.4153
 Red. masses --      3.6199                 2.7387                 2.5891
 Frc consts  --      0.0007                 0.0014                 0.0037
 IR Inten    --      0.0967                 1.2734                 2.8456

                      4                      5                      6
                      A                      A                      A
 Frequencies --     54.9727                63.0645                80.0730
 Red. masses --      2.7188                 3.0098                 1.8504
 Frc consts  --      0.0048                 0.0071                 0.0070
 IR Inten    --      0.9365                 2.2604                 6.0307

                      7                      8                      9
                      A                      A                      A
 Frequencies --    110.5169               120.3203               127.5997
 Red. masses --      2.3736                 2.9676                 2.8739
 Frc consts  --      0.0171                 0.0253                 0.0276
 IR Inten    --      1.1411                 5.1205                 3.1631

                     10                     11                     12
                      A                      A                      A
 Frequencies --    146.6999               199.5929               203.1078
 Red. masses --      2.1352                 2.3720                 2.0371
 Frc consts  --      0.0271                 0.0557                 0.0495
 IR Inten    --      0.3466                 5.2780                 8.0573

                     13                     14                     15
                      A                      A                      A
 Frequencies --    229.9901               240.1190               256.9705
 Red. masses --      1.5003                 1.3713                 1.7404
 Frc consts  --      0.0468                 0.0466                 0.0677
 IR Inten    --     25.6137                50.9804                 4.0598

                     16                     17                     18
                      A                      A                      A
 Frequencies --    289.8438               299.6818               312.2749
 Red. masses --      1.6832                 2.1364                 2.3047
 Frc consts  --      0.0833                 0.1130                 0.1324
 IR Inten    --     34.1668                22.5656                 8.5347

                     19                     20                     21
                      A                      A                      A
 Frequencies --    397.0681               413.6730               474.2243
 Red. masses --      2.8185                 2.9003                 2.4477
 Frc consts  --      0.2618                 0.2924                 0.3243
 IR Inten    --      3.1330                 4.0067                 8.8469

                     22                     23                     24
                      A                      A                      A
 Frequencies --    511.9035               546.0883               723.9765
 Red. masses --      2.3795                 2.5954                 1.1567
 Frc consts  --      0.3674                 0.4560                 0.3572
 IR Inten    --      2.0208                 1.8636                 7.9495

                     25                     26                     27
                      A                      A                      A
 Frequencies --    734.2089               754.3489               778.0765
 Red. masses --      1.1135                 1.2188                 1.3020
 Frc consts  --      0.3537                 0.4086                 0.4644
 IR Inten    --      5.2519                 0.1893                 3.0028

                     28                     29                     30
                      A                      A                      A
 Frequencies --    794.2654               828.9543               858.4650
 Red. masses --      1.3445                 1.5423                 1.7566
 Frc consts  --      0.4997                 0.6244                 0.7627
 IR Inten    --      5.1321                10.8535                34.5795

                     31                     32                     33
                      A                      A                      A
 Frequencies --    879.9197               891.5516               903.5057
 Red. masses --      1.7641                 1.6661                 1.4634
 Frc consts  --      0.8047                 0.7803                 0.7039
 IR Inten    --    126.9768                33.2990               108.1834

                     34                     35                     36
                      A                      A                      A
 Frequencies --    926.2580               932.7157               958.4726
 Red. masses --      1.6023                 1.9928                 1.7107
 Frc consts  --      0.8100                 1.0214                 0.9259
 IR Inten    --      8.7218                 6.8046                68.5198

                     37                     38                     39
                      A                      A                      A
 Frequencies --    984.0304              1013.9696              1022.9217
 Red. masses --      1.6032                 2.6249                 1.9719
 Frc consts  --      0.9146                 1.5901                 1.2157
 IR Inten    --      0.5554                 1.7653                 0.2524

                     40                     41                     42
                      A                      A                      A
 Frequencies --   1036.4123              1057.2069              1063.9888
 Red. masses --      1.8503                 2.7551                 2.3916
 Frc consts  --      1.1710                 1.8143                 1.5952
 IR Inten    --      0.6277                 2.0093                 7.7155

                     43                     44                     45
                      A                      A                      A
 Frequencies --   1084.6630              1088.6158              1093.6523
 Red. masses --      1.4955                 2.5029                 1.9376
 Frc consts  --      1.0366                 1.7476                 1.3655
 IR Inten    --      3.0370                14.8864                 5.6696

                     46                     47                     48
                      A                      A                      A
 Frequencies --   1107.2024              1116.8559              1126.3116
 Red. masses --      2.0879                 1.4731                 1.2669
 Frc consts  --      1.5080                 1.0826                 0.9469
 IR Inten    --      5.8099                 4.5671                 5.0520

                     49                     50                     51
                      A                      A                      A
 Frequencies --   1148.0865              1191.4871              1204.5521
 Red. masses --      2.2439                 1.4227                 1.4710
 Frc consts  --      1.7426                 1.1900                 1.2575
 IR Inten    --     11.7022                 5.2465                 7.5775

                     52                     53                     54
                      A                      A                      A
 Frequencies --   1222.4697              1248.4710              1271.3288
 Red. masses --      1.4943                 1.3551                 1.3891
 Frc consts  --      1.3158                 1.2445                 1.3228
 IR Inten    --      0.9212                 2.7682                 1.0127

                     55                     56                     57
                      A                      A                      A
 Frequencies --   1281.2779              1298.4305              1312.9667
 Red. masses --      1.3245                 1.2853                 1.2602
 Frc consts  --      1.2811                 1.2767                 1.2800
 IR Inten    --      0.8844                 4.1660                 2.2314

                     58                     59                     60
                      A                      A                      A
 Frequencies --   1325.1339              1326.9949              1333.7110
 Red. masses --      1.2361                 1.2832                 1.0642
 Frc consts  --      1.2789                 1.3313                 1.1153
 IR Inten    --      0.4346                 2.1626                 1.0022

                     61                     62                     63
                      A                      A                      A
 Frequencies --   1337.2172              1343.5286              1350.6180
 Red. masses --      1.1356                 1.1100                 1.1379
 Frc consts  --      1.1964                 1.1806                 1.2230
 IR Inten    --      0.9385                 1.1270                 2.5024

                     64                     65                     66
                      A                      A                      A
 Frequencies --   1357.8757              1372.5208              1384.1928
 Red. masses --      1.1328                 1.3046                 1.4166
 Frc consts  --      1.2306                 1.4480                 1.5992
 IR Inten    --      3.5644                 5.5030                 1.1269

                     67                     68                     69
                      A                      A                      A
 Frequencies --   1395.7248              1407.7529              1412.7779
 Red. masses --      1.4419                 1.5341                 1.6133
 Frc consts  --      1.6550                 1.7912                 1.8972
 IR Inten    --     13.0370                 1.9691                 3.3770

                     70                     71                     72
                      A                      A                      A
 Frequencies --   1414.4060              1431.3761              1439.0869
 Red. masses --      1.5682                 1.4162                 1.4790
 Frc consts  --      1.8485                 1.7096                 1.8046
 IR Inten    --      0.4238                22.9378                 8.8985

                     73                     74                     75
                      A                      A                      A
 Frequencies --   1482.0803              1484.8849              1487.0634
 Red. masses --      1.0873                 1.0740                 1.0788
 Frc consts  --      1.4071                 1.3952                 1.4056
 IR Inten    --      1.1789                 0.2944                 2.4260

                     76                     77                     78
                      A                      A                      A
 Frequencies --   1492.2844              1495.9857              1499.2308
 Red. masses --      1.0852                 1.0898                 1.0949
 Frc consts  --      1.4238                 1.4370                 1.4499
 IR Inten    --      1.8008                 1.3319                 2.7846

                     79                     80                     81
                      A                      A                      A
 Frequencies --   1506.0051              1509.6128              1515.5998
 Red. masses --      1.0958                 1.0996                 1.0873
 Frc consts  --      1.4644                 1.4765                 1.4716
 IR Inten    --      5.0872                 0.4976                 2.1444

                     82                     83                     84
                      A                      A                      A
 Frequencies --   1519.9174              1526.9445              1655.5762
 Red. masses --      1.0995                 1.0903                 1.0868
 Frc consts  --      1.4965                 1.4978                 1.7552
 IR Inten    --      4.5936                 1.2033                36.5503

                     85                     86                     87
                      A                      A                      A
 Frequencies --   1659.5710              2951.7297              2974.8720
 Red. masses --      1.0864                 1.0728                 1.0699
 Frc consts  --      1.7629                 5.5072                 5.5787
 IR Inten    --     45.8025               121.6750               106.0401

                     88                     89                     90
                      A                      A                      A
 Frequencies --   3006.6256              3009.3491              3010.9760
 Red. masses --      1.0590                 1.0608                 1.0633
 Frc consts  --      5.6403                 5.6603                 5.6798
 IR Inten    --      3.7684                11.9532                25.7623

                     91                     92                     93
                      A                      A                      A
 Frequencies --   3012.0340              3013.9852              3017.6071
 Red. masses --      1.0647                 1.0617                 1.0618
 Frc consts  --      5.6909                 5.6824                 5.6969
 IR Inten    --      7.8490                25.5224                37.8921

                     94                     95                     96
                      A                      A                      A
 Frequencies --   3019.5667              3025.9494              3027.3663
 Red. masses --      1.0647                 1.0623                 1.0623
 Frc consts  --      5.7194                 5.7306                 5.7365
 IR Inten    --    195.9202                15.6163                87.3259

                     97                     98                     99
                      A                      A                      A
 Frequencies --   3033.9258              3040.6908              3043.6113
 Red. masses --      1.0934                 1.0948                 1.0932
 Frc consts  --      5.9298                 5.9639                 5.9664
 IR Inten    --     29.4001                15.2371                43.2641

                    100                    101                    102
                      A                      A                      A
 Frequencies --   3046.9724              3050.3786              3057.7120
 Red. masses --      1.0995                 1.0997                 1.1009
 Frc consts  --      6.0144                 6.0289                 6.0647
 IR Inten    --     25.8727                34.8393                37.0038

                    103                    104                    105
                      A                      A                      A
 Frequencies --   3061.8545              3064.2317              3066.4368
 Red. masses --      1.0885                 1.1037                 1.1007
 Frc consts  --      6.0126                 6.1057                 6.0979
 IR Inten    --     89.7473                39.7199               125.2082

                    106                    107                    108
                      A                      A                      A
 Frequencies --   3070.6157              3076.7510              3472.9294
 Red. masses --      1.1045                 1.1037                 1.0511
 Frc consts  --      6.1356                 6.1557                 7.4692
 IR Inten    --    328.3889               182.7203                 2.1933

                    109                    110                    111
                      A                      A                      A
 Frequencies --   3486.1828              3550.2356              3560.3983
 Red. masses --      1.0510                 1.0911                 1.0912
 Frc consts  --      7.5256                 8.1025                 8.1500
 IR Inten    --      1.1825                 0.2784                 0.0190

 - Thermochemistry -
 -------------------
 Temperature   298.150 Kelvin.  Pressure   1.00000 Atm.
 Atom     1 has atomic number  7 and mass  14.00307

 Molecular mass:   186.20960 amu.
 Principal axes and moments of inertia in atomic units:
                           1         2         3
     Eigenvalues --  1460.73352********************
           X            1.00000  -0.00074  -0.00015
           Y            0.00074   0.99999  -0.00469
           Z            0.00015   0.00469   0.99999
 This molecule is an asymmetric top.
 Rotational symmetry number  1.
 Warning -- assumption of classical behavior for rotation
           may cause significant error
 Rotational temperatures (Kelvin)      0.05929     0.00852     0.00774
 Rotational constants (GHZ):           1.23550     0.17762     0.16119
 Zero-point vibrational energy     964997.9 (Joules/Mol)
                                  230.64003 (Kcal/Mol)
 Warning -- explicit consideration of  23 degrees of freedom as
           vibrations may cause significant error
 Vibrational temperatures:     26.18    42.26    71.10    79.09    90.74
          (Kelvin)            115.21   159.01   173.11   183.59   211.07
                              287.17   292.23   330.90   345.48   369.72
                              417.02   431.18   449.29   571.29   595.18
                              682.30   736.51   785.70  1041.64  1056.36
                             1085.34  1119.48  1142.77  1192.68  1235.14
                             1266.01  1282.74  1299.94  1332.68  1341.97
                             1379.03  1415.80  1458.88  1471.76  1491.17
                             1521.08  1530.84  1560.59  1566.28  1573.52
                             1593.02  1606.91  1620.51  1651.84  1714.28
                             1733.08  1758.86  1796.27  1829.16  1843.47
                             1868.15  1889.07  1906.57  1909.25  1918.91
                             1923.96  1933.04  1943.24  1953.68  1974.75
                             1991.54  2008.14  2025.44  2032.67  2035.01
                             2059.43  2070.53  2132.38  2136.42  2139.55
                             2147.06  2152.39  2157.06  2166.81  2172.00
                             2180.61  2186.82  2196.93  2382.00  2387.75
                             4246.88  4280.18  4325.86  4329.78  4332.12
                             4333.65  4336.45  4341.66  4344.48  4353.67
                             4355.70  4365.14  4374.88  4379.08  4383.91
                             4388.81  4399.37  4405.33  4408.75  4411.92
                             4417.93  4426.76  4996.77  5015.84  5108.00
                             5122.62

 Zero-point correction=                           0.367548 (Hartree/Particle)
 Thermal correction to Energy=                    0.384838
 Thermal correction to Enthalpy=                  0.385782
 Thermal correction to Gibbs Free Energy=         0.319662
 Sum of electronic and zero-point Energies=           -544.012080
 Sum of electronic and thermal Energies=              -543.994791
 Sum of electronic and thermal Enthalpies=            -543.993847
 Sum of electronic and thermal Free Energies=         -544.059966

                     E (Thermal)             CV                S
                      KCal/Mol        Cal/Mol-Kelvin    Cal/Mol-Kelvin
 Total                  241.489             61.834            139.161
 Electronic               0.000              0.000              0.000
 Translational            0.889              2.981             41.571
 Rotational               0.889              2.981             33.474
 Vibrational            239.712             55.873             64.115
 Vibration     1          0.593              1.986              6.822
 Vibration     2          0.593              1.984              5.871
 Vibration     3          0.595              1.978              4.841
 Vibration     4          0.596              1.976              4.630
 Vibration     5          0.597              1.972              4.359
 Vibration     6          0.600              1.963              3.889
 Vibration     7          0.606              1.941              3.260
 Vibration     8          0.609              1.932              3.095
 Vibration     9          0.611              1.926              2.982
 Vibration    10          0.617              1.906              2.715
 Vibration    11          0.638              1.840              2.137
 Vibration    12          0.639              1.835              2.105
 Vibration    13          0.652              1.795              1.879
 Vibration    14          0.657              1.779              1.802
 Vibration    15          0.667              1.751              1.682
 Vibration    16          0.686              1.693              1.475
 Vibration    17          0.692              1.674              1.419
 Vibration    18          0.701              1.650              1.350
 Vibration    19          0.764              1.476              0.973
 Vibration    20          0.777              1.441              0.914
 Vibration    21          0.831              1.307              0.726
 Vibration    22          0.867              1.224              0.629
 Vibration    23          0.901              1.148              0.552

 Optimization completed.
    -- Stationary point found.
 Normal termination of Gaussian 16 at Thu Jul 18 06:24:31 2024.
 Gaussian 16:  ES64L-G16RevA.03 25-Dec-2016

 ----------------------------------------------------------------------
 # TD(NStates=10, Root=1) B3LYP/6-31G** SCRF=(Solvent=water) volume pop
 =NPA density=current Geom=AllCheck Guess=Read
 ----------------------------------------------------------------------

 Structure from the checkpoint file:  "KLNPWTHGTVSSEU-UHFFFAOYSA-N_conf_1_2.chk"
 ----------------------------------
 KLNPWTHGTVSSEU-UHFFFAOYSA-N_conf_1
 ----------------------------------
 Charge =  0 Multiplicity = 1

                         Standard orientation:
 ---------------------------------------------------------------------
 Center     Atomic      Atomic             Coordinates (Angstroms)
 Number     Number       Type             X           Y           Z
 ---------------------------------------------------------------------
      1          7           0       -5.685337    1.818129   -0.216546
      2          6           0       -4.437833    1.780206    0.566202
      3          6           0       -3.867717    0.361028    0.665832
      4          6           0       -3.422883   -0.230208   -0.679329
      5          6           0       -2.850054   -1.656417   -0.588557
      6          6           0       -1.547768   -1.814036    0.216070
      7          6           0       -0.339617   -1.068691   -0.367170
      8          6           0        0.960003   -1.323667    0.406816
      9          6           0        2.173978   -0.583597   -0.168953
     10          6           0        3.469120   -0.849937    0.611973
     11          6           0        4.729944   -0.197136    0.023333
     12          6           0        4.748978    1.332248    0.091342
     13          7           0        6.038911    1.855282   -0.392057
     14          1           0       -5.465364    1.685802   -1.201861
     15          1           0       -6.078162    2.756007   -0.161634
     16          1           0       -4.672697    2.137991    1.575578
     17          1           0       -3.655114    2.452107    0.171562
     18          1           0       -4.625127   -0.293192    1.118668
     19          1           0       -3.017722    0.387739    1.359020
     20          1           0       -4.282192   -0.257875   -1.361730
     21          1           0       -2.687581    0.440524   -1.144495
     22          1           0       -2.678357   -2.029839   -1.607395
     23          1           0       -3.614916   -2.312694   -0.151165
     24          1           0       -1.307114   -2.884516    0.271631
     25          1           0       -1.705579   -1.491253    1.253889
     26          1           0       -0.202096   -1.369084   -1.416163
     27          1           0       -0.537816    0.011291   -0.384310
     28          1           0        0.820207   -1.027816    1.456568
     29          1           0        1.167634   -2.403334    0.421786
     30          1           0        2.317872   -0.883229   -1.217201
     31          1           0        1.959798    0.493039   -0.187227
     32          1           0        3.341041   -0.516819    1.651985
     33          1           0        3.630414   -1.935138    0.661346
     34          1           0        4.845879   -0.511379   -1.024574
     35          1           0        5.614520   -0.569303    0.554994
     36          1           0        4.630720    1.646443    1.136710
     37          1           0        3.884839    1.741438   -0.456899
     38          1           0        6.120676    1.648068   -1.386997
     39          1           0        6.024311    2.872387   -0.337216
 ---------------------------------------------------------------------

 SCF Done:  E(RB3LYP) =  -544.379628641     A.U. after    1 cycles

 Excitation energies and oscillator strengths:

 Excited State   1:      Singlet-A      7.3689 eV  168.25 nm  f=0.0207  <S**2>=0.000
      52 -> 54         0.63171
      52 -> 56        -0.22332
      52 -> 57        -0.21457
 This state for optimization and/or second-order correction.
 Total Energy, E(TD-HF/TD-DFT) =  -544.108826095
 Copying the excited state density for this state as the 1-particle RhoCI density.

 Excited State   2:      Singlet-A      7.4874 eV  165.59 nm  f=0.0159  <S**2>=0.000
      53 -> 55         0.69489

 Excited State   3:      Singlet-A      8.1633 eV  151.88 nm  f=0.0158  <S**2>=0.000
      53 -> 54         0.45512
      53 -> 56         0.47999
      53 -> 57        -0.19933

 Excited State   4:      Singlet-A      8.2680 eV  149.96 nm  f=0.0106  <S**2>=0.000
      53 -> 54         0.53407
      53 -> 56        -0.36364
      53 -> 57         0.24355

 Excited State   5:      Singlet-A      8.3186 eV  149.04 nm  f=0.0218  <S**2>=0.000
      52 -> 54         0.30577
      52 -> 56         0.43485
      52 -> 57         0.39776
      52 -> 58        -0.17748
      52 -> 61        -0.14399

 Excited State   6:      Singlet-A      8.5389 eV  145.20 nm  f=0.0067  <S**2>=0.000
      52 -> 57         0.26646
      52 -> 58         0.49098
      52 -> 59         0.23845
      52 -> 60         0.24768
      52 -> 61         0.12623
      52 -> 63        -0.15207
      52 -> 64        -0.11313

 Excited State   7:      Singlet-A      8.6305 eV  143.66 nm  f=0.0001  <S**2>=0.000
      52 -> 55         0.70331

 Excited State   8:      Singlet-A      8.7055 eV  142.42 nm  f=0.0212  <S**2>=0.000
      53 -> 58         0.39186
      53 -> 60        -0.38843
      53 -> 61        -0.28007
      53 -> 63        -0.24078
      53 -> 66        -0.11156

 Excited State   9:      Singlet-A      8.7371 eV  141.91 nm  f=0.0064  <S**2>=0.000
      52 -> 56         0.49899
      52 -> 57        -0.42877
      52 -> 58         0.12172
      52 -> 59         0.12228
      52 -> 61         0.15224

 Excited State  10:      Singlet-A      8.7800 eV  141.21 nm  f=0.0043  <S**2>=0.000
      53 -> 56         0.32942
      53 -> 57         0.52126
      53 -> 59         0.16366
      53 -> 60        -0.22764
      53 -> 62         0.11329

 The electronic state is 1-A.
 Alpha  occ. eigenvalues --  -14.30800 -14.30785 -10.20058 -10.19956 -10.17514
 Alpha  occ. eigenvalues --  -10.17446 -10.17388 -10.17385 -10.17314 -10.17293
 Alpha  occ. eigenvalues --  -10.17280 -10.17253 -10.17232  -0.87261  -0.87231
 Alpha  occ. eigenvalues --   -0.80562  -0.78780  -0.75946  -0.72664  -0.69026
 Alpha  occ. eigenvalues --   -0.65305  -0.62048  -0.58978  -0.57653  -0.56291
 Alpha  occ. eigenvalues --   -0.54465  -0.48436  -0.47276  -0.47060  -0.46658
 Alpha  occ. eigenvalues --   -0.45649  -0.44452  -0.43457  -0.42099  -0.40814
 Alpha  occ. eigenvalues --   -0.40150  -0.39066  -0.38381  -0.37842  -0.36088
 Alpha  occ. eigenvalues --   -0.35703  -0.34996  -0.33755  -0.33637  -0.32709
 Alpha  occ. eigenvalues --   -0.31846  -0.31697  -0.31325  -0.30681  -0.30405
 Alpha  occ. eigenvalues --   -0.29408  -0.23577  -0.23505
 Alpha virt. eigenvalues --    0.07925   0.09126   0.09484   0.10361   0.10932
 Alpha virt. eigenvalues --    0.11738   0.12237   0.12768   0.13332   0.14292
 Alpha virt. eigenvalues --    0.14780   0.16259   0.16541   0.17171   0.17551

 Mulliken charges:
               1
     1  N   -0.059965
     2  C   -0.094978
     3  C   -0.164817
     4  C   -0.119965
     5  C   -0.189640
     6  C   -0.169114
     7  C   -0.162740
     8  C   -0.176649
     9  C   -0.174598
    10  C   -0.181954
    11  C   -0.175133
    12  C   -0.049147
    13  N   -0.646400
    14  H    0.017727
    15  H    0.013440
    16  H    0.090350
    17  H    0.123854
    18  H    0.101620
    19  H    0.085951
    20  H    0.007719
    21  H    0.055460
    22  H    0.081746
    23  H    0.081078
    24  H    0.074885
    25  H    0.080551
    26  H    0.080793
    27  H    0.075101
    28  H    0.085514
    29  H    0.086019
    30  H    0.087957
    31  H    0.092852
    32  H    0.089632
    33  H    0.089690
    34  H    0.089818
    35  H    0.090431
    36  H    0.098289
    37  H    0.086297
    38  H    0.248285
    39  H    0.250041
 Sum of Mulliken charges =  -0.00000

 Dipole moment (field-independent basis, Debye):
    X=             -2.0042    Y=              1.7154    Z=              0.2537  Tot=              2.6502
 Quadrupole moment (field-independent basis, Debye-Ang):
   XX=            -99.3304   YY=            -83.7297   ZZ=            -87.5052
   XY=              0.0864   XZ=            -11.4364   YZ=             -0.2828

 Summary of Natural Population Analysis:

                                       Natural Population
                Natural  -----------------------------------------------
    Atom  No    Charge         Core      Valence    Rydberg      Total
 -----------------------------------------------------------------------
      N    1   -0.36650      1.99933     5.34465    0.02251     7.36650
      C    2   -0.35315      1.99929     4.33656    0.01730     6.35315
      C    3   -0.47675      1.99931     4.46612    0.01132     6.47675
      C    4   -0.48188      1.99932     4.46658    0.01597     6.48188
      C    5   -0.46148      1.99934     4.45016    0.01198     6.46148
      C    6   -0.46083      1.99934     4.45026    0.01123     6.46083
      C    7   -0.46087      1.99933     4.45055    0.01099     6.46087
      C    8   -0.45534      1.99934     4.44511    0.01090     6.45534
      C    9   -0.45969      1.99934     4.44958    0.01078     6.45969
      C   10   -0.46019      1.99934     4.44990    0.01095     6.46019
      C   11   -0.47259      1.99933     4.46145    0.01180     6.47259
      C   12   -0.26089      1.99936     4.24855    0.01299     6.26089
      N   13   -0.92937      1.99969     5.91479    0.01489     7.92937
      H   14    0.20026      0.00000     0.72075    0.07899     0.79974
      H   15    0.19329      0.00000     0.72666    0.08005     0.80671
      H   16    0.21942      0.00000     0.75839    0.02219     0.78058
      H   17    0.25861      0.00000     0.71167    0.02972     0.74139
      H   18    0.23925      0.00000     0.75430    0.00645     0.76075
      H   19    0.22202      0.00000     0.76771    0.01027     0.77798
      H   20    0.17724      0.00000     0.79643    0.02633     0.82276
      H   21    0.20883      0.00000     0.77768    0.01350     0.79117
      H   22    0.23084      0.00000     0.76622    0.00294     0.76916
      H   23    0.23011      0.00000     0.76718    0.00271     0.76989
      H   24    0.22556      0.00000     0.77052    0.00392     0.77444
      H   25    0.22103      0.00000     0.77424    0.00472     0.77897
      H   26    0.22381      0.00000     0.77297    0.00321     0.77619
      H   27    0.21565      0.00000     0.77698    0.00736     0.78435
      H   28    0.22592      0.00000     0.77124    0.00284     0.77408
      H   29    0.22624      0.00000     0.77121    0.00255     0.77376
      H   30    0.22727      0.00000     0.77040    0.00232     0.77273
      H   31    0.22755      0.00000     0.77021    0.00223     0.77245
      H   32    0.22877      0.00000     0.76898    0.00226     0.77123
      H   33    0.23579      0.00000     0.76219    0.00203     0.76421
      H   34    0.22678      0.00000     0.77095    0.00227     0.77322
      H   35    0.23797      0.00000     0.75932    0.00271     0.76203
      H   36    0.22181      0.00000     0.77602    0.00217     0.77819
      H   37    0.20299      0.00000     0.79464    0.00237     0.79701
      H   38    0.38227      0.00000     0.61479    0.00294     0.61773
      H   39    0.38904      0.00000     0.60829    0.00267     0.61096
 =======================================================================
   * Total *   -0.00119     25.99164    79.51420    0.49535   106.00119

 Normal termination of Gaussian 16 at Thu Jul 18 06:44:18 2024.
