 Gaussian 16, Revision A.03,

 -------------------------------------------------------
 # opt=CalcFc B3LYP/6-31G** SCRF=(Solvent=water) scf=xqc
 -------------------------------------------------------

 ----------------------------------
 KLNPWTHGTVSSEU-UHFFFAOYSA-N_conf_0
 ----------------------------------
 Symbolic Z-matrix:
 Charge =  0 Multiplicity = 1

 SCF Done:  E(RB3LYP) =  -544.376292566     A.U. after   10 cycles
 SCF Done:  E(RB3LYP) =  -544.379803972     A.U. after    9 cycles
 SCF Done:  E(RB3LYP) =  -544.379966268     A.U. after    9 cycles
 SCF Done:  E(RB3LYP) =  -544.379972280     A.U. after    7 cycles
 SCF Done:  E(RB3LYP) =  -544.379972756     A.U. after    7 cycles
 SCF Done:  E(RB3LYP) =  -544.379972593     A.U. after    6 cycles
 SCF Done:  E(RB3LYP) =  -544.379972548     A.U. after    6 cycles
 Optimization completed on the basis of negligible forces.
    -- Stationary point found.
 Normal termination of Gaussian 16 at Thu Jul 18 05:56:35 2024.

 ----------------------------------------------------------------------
 # freq B3LYP/6-31G** SCRF=(Solvent=water) volume NMR pop=NPA density=c
 urrent Geom=AllCheck Guess=Read
 ----------------------------------------------------------------------

 Structure from the checkpoint file:  "KLNPWTHGTVSSEU-UHFFFAOYSA-N_conf_0_1.chk"
 ----------------------------------
 KLNPWTHGTVSSEU-UHFFFAOYSA-N_conf_0
 ----------------------------------
 Charge =  0 Multiplicity = 1

 SCF Done:  E(RB3LYP) =  -544.379972548     A.U. after    1 cycles

      1  N    Isotropic =   236.1240   Anisotropy =    34.4683

      2  C    Isotropic =   151.0759   Anisotropy =    33.1063

      3  C    Isotropic =   158.9640   Anisotropy =    14.1650

      4  C    Isotropic =   164.6537   Anisotropy =    27.6501

      5  C    Isotropic =   161.2113   Anisotropy =    27.0726

      6  C    Isotropic =   157.4567   Anisotropy =    33.8469

      7  C    Isotropic =   159.8056   Anisotropy =    28.1122

      8  C    Isotropic =   158.8277   Anisotropy =    24.0626

      9  C    Isotropic =   162.4331   Anisotropy =    21.3077

     10  C    Isotropic =   166.4484   Anisotropy =    21.2059

     11  C    Isotropic =   158.6445   Anisotropy =    14.2646

     12  C    Isotropic =   151.1566   Anisotropy =    33.0664

     13  N    Isotropic =   236.3579   Anisotropy =    34.4467

     14  H    Isotropic =    31.1499   Anisotropy =    15.2400

     15  H    Isotropic =    31.8870   Anisotropy =    13.4564

     16  H    Isotropic =    29.0207   Anisotropy =     5.3435

     17  H    Isotropic =    28.8387   Anisotropy =     9.1301

     18  H    Isotropic =    30.4113   Anisotropy =     7.3520

     19  H    Isotropic =    30.2425   Anisotropy =     8.8426

     20  H    Isotropic =    30.6203   Anisotropy =     7.2321

     21  H    Isotropic =    29.7059   Anisotropy =     5.1481

     22  H    Isotropic =    30.7296   Anisotropy =     4.9662

     23  H    Isotropic =    30.0541   Anisotropy =     5.6988

     24  H    Isotropic =    30.4802   Anisotropy =     4.7557

     25  H    Isotropic =    30.4828   Anisotropy =     4.3616

     26  H    Isotropic =    30.0837   Anisotropy =     6.4894

     27  H    Isotropic =    30.6144   Anisotropy =     4.4233

     28  H    Isotropic =    30.2253   Anisotropy =     6.9443

     29  H    Isotropic =    30.4219   Anisotropy =     5.4720

     30  H    Isotropic =    30.0658   Anisotropy =     5.1604

     31  H    Isotropic =    30.5853   Anisotropy =     7.6221

     32  H    Isotropic =    29.4255   Anisotropy =     4.8308

     33  H    Isotropic =    30.8306   Anisotropy =     7.1535

     34  H    Isotropic =    30.4415   Anisotropy =     7.8006

     35  H    Isotropic =    30.2088   Anisotropy =     8.7341

     36  H    Isotropic =    28.8508   Anisotropy =     9.4750

     37  H    Isotropic =    29.0630   Anisotropy =     5.1124

     38  H    Isotropic =    31.8852   Anisotropy =    13.1418

     39  H    Isotropic =    31.1630   Anisotropy =    15.2486

  Exact polarizability: 180.677   0.106 166.614  -0.916   0.078 163.679
 Approx polarizability: 175.927   0.753 177.970  -1.409   0.652 179.597

                      1                      2                      3
                      A                      A                      A
 Frequencies --     17.0934                28.9434                34.3150
 Red. masses --      3.4452                 3.3220                 3.6351
 Frc consts  --      0.0006                 0.0016                 0.0025
 IR Inten    --      0.0762                 0.7623                 0.8842

                      4                      5                      6
                      A                      A                      A
 Frequencies --     55.6348                58.5905                72.7566
 Red. masses --      2.6938                 2.7559                 2.6985
 Frc consts  --      0.0049                 0.0056                 0.0084
 IR Inten    --      1.3481                 1.6466                 0.2614

                      7                      8                      9
                      A                      A                      A
 Frequencies --    111.4383               117.6511               147.6896
 Red. masses --      2.1943                 2.4206                 2.1105
 Frc consts  --      0.0161                 0.0197                 0.0271
 IR Inten    --      1.3821                 2.6614                 0.1226

                     10                     11                     12
                      A                      A                      A
 Frequencies --    169.5835               181.6109               216.1451
 Red. masses --      1.9183                 2.0356                 2.1041
 Frc consts  --      0.0325                 0.0396                 0.0579
 IR Inten    --     13.4687                13.4682                 3.8982

                     13                     14                     15
                      A                      A                      A
 Frequencies --    240.4154               253.9024               257.8807
 Red. masses --      2.1899                 1.7863                 1.4257
 Frc consts  --      0.0746                 0.0678                 0.0559
 IR Inten    --      6.3829                 6.6970                65.3593

                     16                     17                     18
                      A                      A                      A
 Frequencies --    263.6322               311.3913               335.2310
 Red. masses --      1.3431                 2.1991                 2.2931
 Frc consts  --      0.0550                 0.1256                 0.1518
 IR Inten    --     41.6915                 3.3228                 0.4186

                     19                     20                     21
                      A                      A                      A
 Frequencies --    401.6875               425.3120               480.1560
 Red. masses --      2.6294                 2.2747                 2.4242
 Frc consts  --      0.2500                 0.2424                 0.3293
 IR Inten    --      3.1809                 4.1973                 3.9121

                     22                     23                     24
                      A                      A                      A
 Frequencies --    518.9807               554.1810               727.9304
 Red. masses --      2.2916                 2.2618                 1.1399
 Frc consts  --      0.3637                 0.4093                 0.3559
 IR Inten    --      9.9974                 0.6541                10.6716

                     25                     26                     27
                      A                      A                      A
 Frequencies --    732.3166               748.1181               781.7064
 Red. masses --      1.2298                 1.1971                 1.3515
 Frc consts  --      0.3886                 0.3948                 0.4866
 IR Inten    --      3.9624                 4.5794                10.9252

                     28                     29                     30
                      A                      A                      A
 Frequencies --    808.4564               820.8546               845.8856
 Red. masses --      1.5380                 1.6765                 2.2009
 Frc consts  --      0.5923                 0.6656                 0.9279
 IR Inten    --     46.1235                21.8220                 7.2808

                     31                     32                     33
                      A                      A                      A
 Frequencies --    865.2241               883.9769               894.7742
 Red. masses --      1.8317                 1.6609                 1.4526
 Frc consts  --      0.8079                 0.7647                 0.6852
 IR Inten    --     50.2099                72.2574               129.5021

                     34                     35                     36
                      A                      A                      A
 Frequencies --    926.8761               944.3656               970.9080
 Red. masses --      1.6100                 1.8445                 1.6577
 Frc consts  --      0.8149                 0.9692                 0.9207
 IR Inten    --     16.4662                18.3001                13.9248

                     37                     38                     39
                      A                      A                      A
 Frequencies --   1000.3835              1007.8831              1021.5674
 Red. masses --      1.7150                 2.3192                 1.8210
 Frc consts  --      1.0112                 1.3880                 1.1197
 IR Inten    --     28.4310                 2.3010                 7.2821

                     40                     41                     42
                      A                      A                      A
 Frequencies --   1034.5735              1041.8158              1050.9418
 Red. masses --      1.8901                 1.6093                 1.8624
 Frc consts  --      1.1919                 1.0291                 1.2119
 IR Inten    --      0.8672                 5.9118                 2.6094

                     43                     44                     45
                      A                      A                      A
 Frequencies --   1062.6645              1075.1061              1089.6212
 Red. masses --      2.2337                 1.8352                 1.6467
 Frc consts  --      1.4861                 1.2498                 1.1519
 IR Inten    --      2.3982                 4.2282                 1.9468

                     46                     47                     48
                      A                      A                      A
 Frequencies --   1111.5381              1114.2445              1133.7804
 Red. masses --      2.0650                 2.1227                 1.5472
 Frc consts  --      1.5032                 1.5527                 1.1718
 IR Inten    --      7.0970                 6.4057                 4.8076

                     49                     50                     51
                      A                      A                      A
 Frequencies --   1156.6591              1162.0127              1188.6096
 Red. masses --      1.5910                 1.5262                 1.5763
 Frc consts  --      1.2541                 1.2142                 1.3121
 IR Inten    --      6.5588                 1.5452                 3.9058

                     52                     53                     54
                      A                      A                      A
 Frequencies --   1227.0179              1258.4099              1271.0193
 Red. masses --      1.4663                 1.3529                 1.3619
 Frc consts  --      1.3007                 1.2623                 1.2962
 IR Inten    --      3.9544                 0.3418                 2.0270

                     55                     56                     57
                      A                      A                      A
 Frequencies --   1298.5360              1304.7181              1314.8714
 Red. masses --      1.2924                 1.2780                 1.2897
 Frc consts  --      1.2839                 1.2818                 1.3138
 IR Inten    --      1.6140                 2.5330                 4.1537

                     58                     59                     60
                      A                      A                      A
 Frequencies --   1320.1844              1330.2170              1332.6112
 Red. masses --      1.2434                 1.1475                 1.1456
 Frc consts  --      1.2769                 1.1963                 1.1986
 IR Inten    --      1.2524                 2.8200                 1.6407

                     61                     62                     63
                      A                      A                      A
 Frequencies --   1334.1462              1339.6759              1344.0438
 Red. masses --      1.1197                 1.0970                 1.2009
 Frc consts  --      1.1742                 1.1600                 1.2781
 IR Inten    --      1.4835                 0.5268                 0.9732

                     64                     65                     66
                      A                      A                      A
 Frequencies --   1354.6391              1380.5735              1395.7278
 Red. masses --      1.1806                 1.3831                 1.4000
 Frc consts  --      1.2764                 1.5532                 1.6068
 IR Inten    --      3.1047                 5.2555                12.1729

                     67                     68                     69
                      A                      A                      A
 Frequencies --   1397.7809              1406.0812              1408.6332
 Red. masses --      1.4208                 1.5834                 1.5147
 Frc consts  --      1.6356                 1.8444                 1.7709
 IR Inten    --     13.3126                 0.4293                 1.7395

                     70                     71                     72
                      A                      A                      A
 Frequencies --   1412.9186              1432.5637              1432.7224
 Red. masses --      1.6201                 1.4415                 1.4419
 Frc consts  --      1.9056                 1.7430                 1.7438
 IR Inten    --      3.6500                11.5895                14.0780

                     73                     74                     75
                      A                      A                      A
 Frequencies --   1481.3592              1483.5259              1486.5228
 Red. masses --      1.0779                 1.0780                 1.0812
 Frc consts  --      1.3937                 1.3979                 1.4077
 IR Inten    --      0.7210                 2.2614                 2.6157

                     76                     77                     78
                      A                      A                      A
 Frequencies --   1490.4596              1492.4763              1495.2585
 Red. masses --      1.0883                 1.0938                 1.0962
 Frc consts  --      1.4245                 1.4355                 1.4441
 IR Inten    --      1.3103                 4.4642                 3.3375

                     79                     80                     81
                      A                      A                      A
 Frequencies --   1504.5072              1507.1232              1519.0611
 Red. masses --      1.0976                 1.1000                 1.0998
 Frc consts  --      1.4638                 1.4721                 1.4952
 IR Inten    --      5.7311                 0.6003                 3.9925

                     82                     83                     84
                      A                      A                      A
 Frequencies --   1522.9348              1522.9937              1653.5727
 Red. masses --      1.0870                 1.0870                 1.0880
 Frc consts  --      1.4853                 1.4855                 1.7527
 IR Inten    --      4.3753                 3.8782                36.2845

                     85                     86                     87
                      A                      A                      A
 Frequencies --   1654.6998              2959.7670              2959.7711
 Red. masses --      1.0877                 1.0736                 1.0736
 Frc consts  --      1.7547                 5.5412                 5.5412
 IR Inten    --     36.7845               188.2394                72.6938

                     88                     89                     90
                      A                      A                      A
 Frequencies --   3005.0497              3006.5791              3009.3260
 Red. masses --      1.0595                 1.0595                 1.0613
 Frc consts  --      5.6372                 5.6430                 5.6628
 IR Inten    --      4.3279                 8.9900                 8.6227

                     91                     92                     93
                      A                      A                      A
 Frequencies --   3011.0626              3013.4804              3015.9410
 Red. masses --      1.0634                 1.0640                 1.0659
 Frc consts  --      5.6806                 5.6929                 5.7122
 IR Inten    --     27.2684                58.6679               119.6199

                     94                     95                     96
                      A                      A                      A
 Frequencies --   3017.0101              3026.6210              3027.7880
 Red. masses --      1.0629                 1.0680                 1.0657
 Frc consts  --      5.7003                 5.7641                 5.7560
 IR Inten    --    134.0721                76.1933                69.9648

                     97                     98                     99
                      A                      A                      A
 Frequencies --   3033.3901              3039.6326              3047.6784
 Red. masses --      1.0931                 1.0977                 1.0978
 Frc consts  --      5.9262                 5.9755                 6.0076
 IR Inten    --     24.6592                31.2500                21.2622

                    100                    101                    102
                      A                      A                      A
 Frequencies --   3048.0980              3048.5762              3053.0346
 Red. masses --      1.0979                 1.0975                 1.0993
 Frc consts  --      6.0098                 6.0095                 6.0373
 IR Inten    --     31.1235                24.2818                29.6228

                    103                    104                    105
                      A                      A                      A
 Frequencies --   3064.7755              3066.3926              3068.1938
 Red. masses --      1.0962                 1.0923                 1.0995
 Frc consts  --      6.0665                 6.0512                 6.0983
 IR Inten    --     82.9643                62.6009               259.7765

                    106                    107                    108
                      A                      A                      A
 Frequencies --   3079.0780              3090.8001              3475.6500
 Red. masses --      1.1009                 1.0958                 1.0510
 Frc consts  --      6.1496                 6.1679                 7.4802
 IR Inten    --    184.5706                96.4580                 1.5251

                    109                    110                    111
                      A                      A                      A
 Frequencies --   3475.8591              3555.2405              3555.4512
 Red. masses --      1.0510                 1.0913                 1.0913
 Frc consts  --      7.4811                 8.1273                 8.1282
 IR Inten    --      1.5633                 0.0414                 0.0391

 - Thermochemistry -
 -------------------
 Temperature   298.150 Kelvin.  Pressure   1.00000 Atm.
 Atom     1 has atomic number  7 and mass  14.00307

 Molecular mass:   186.20960 amu.
 Principal axes and moments of inertia in atomic units:
                           1         2         3
     Eigenvalues --  1302.25904********************
           X            1.00000  -0.00101   0.00154
           Y            0.00101   1.00000   0.00070
           Z           -0.00154  -0.00070   1.00000
 This molecule is an asymmetric top.
 Rotational symmetry number  1.
 Warning -- assumption of classical behavior for rotation
           may cause significant error
 Rotational temperatures (Kelvin)      0.06651     0.00861     0.00817
 Rotational constants (GHZ):           1.38585     0.17946     0.17028
 Zero-point vibrational energy     964924.9 (Joules/Mol)
                                  230.62259 (Kcal/Mol)
 Warning -- explicit consideration of  23 degrees of freedom as
           vibrations may cause significant error
 Vibrational temperatures:     24.59    41.64    49.37    80.05    84.30
          (Kelvin)            104.68   160.33   169.27   212.49   243.99
                              261.30   310.98   345.90   365.31   371.03
                              379.31   448.02   482.32   577.94   611.93
                              690.84   746.70   797.34  1047.33  1053.64
                             1076.38  1124.70  1163.19  1181.03  1217.04
                             1244.86  1271.85  1287.38  1333.57  1358.73
                             1396.92  1439.33  1450.12  1469.81  1488.52
                             1498.94  1512.07  1528.94  1546.84  1567.72
                             1599.26  1603.15  1631.26  1664.17  1671.88
                             1710.14  1765.41  1810.57  1828.71  1868.30
                             1877.20  1891.81  1899.45  1913.89  1917.33
                             1919.54  1927.49  1933.78  1949.02  1986.34
                             2008.14  2011.09  2023.04  2026.71  2032.87
                             2061.14  2061.37  2131.35  2134.46  2138.77
                             2144.44  2147.34  2151.34  2164.65  2168.41
                             2185.59  2191.16  2191.25  2379.12  2380.74
                             4258.44  4258.45  4323.60  4325.80  4329.75
                             4332.25  4335.73  4339.27  4340.80  4354.63
                             4356.31  4364.37  4373.35  4384.93  4385.53
                             4386.22  4392.64  4409.53  4411.85  4414.45
                             4430.11  4446.97  5000.69  5000.99  5115.20
                             5115.50

 Zero-point correction=                           0.367520 (Hartree/Particle)
 Thermal correction to Energy=                    0.384743
 Thermal correction to Enthalpy=                  0.385687
 Thermal correction to Gibbs Free Energy=         0.319443
 Sum of electronic and zero-point Energies=           -544.012452
 Sum of electronic and thermal Energies=              -543.995230
 Sum of electronic and thermal Enthalpies=            -543.994286
 Sum of electronic and thermal Free Energies=         -544.060530

                     E (Thermal)             CV                S
                      KCal/Mol        Cal/Mol-Kelvin    Cal/Mol-Kelvin
 Total                  241.430             61.745            139.422
 Electronic               0.000              0.000              0.000
 Translational            0.889              2.981             41.571
 Rotational               0.889              2.981             33.295
 Vibrational            239.652             55.784             64.556
 Vibration     1          0.593              1.986              6.946
 Vibration     2          0.593              1.984              5.901
 Vibration     3          0.594              1.983              5.563
 Vibration     4          0.596              1.975              4.606
 Vibration     5          0.596              1.974              4.504
 Vibration     6          0.599              1.967              4.077
 Vibration     7          0.607              1.940              3.244
 Vibration     8          0.608              1.935              3.139
 Vibration     9          0.617              1.905              2.702
 Vibration    10          0.625              1.880              2.440
 Vibration    11          0.630              1.865              2.312
 Vibration    12          0.645              1.816              1.991
 Vibration    13          0.657              1.779              1.800
 Vibration    14          0.665              1.756              1.703
 Vibration    15          0.667              1.749              1.676
 Vibration    16          0.670              1.740              1.638
 Vibration    17          0.700              1.652              1.355
 Vibration    18          0.716              1.605              1.235
 Vibration    19          0.767              1.466              0.956
 Vibration    20          0.787              1.415              0.874
 Vibration    21          0.837              1.294              0.710
 Vibration    22          0.874              1.208              0.612
 Vibration    23          0.910              1.131              0.536

 Optimization completed.
    -- Stationary point found.
 Normal termination of Gaussian 16 at Thu Jul 18 06:13:47 2024.
 Gaussian 16:  ES64L-G16RevA.03 25-Dec-2016

 ----------------------------------------------------------------------
 # TD(NStates=10, Root=1) B3LYP/6-31G** SCRF=(Solvent=water) volume pop
 =NPA density=current Geom=AllCheck Guess=Read
 ----------------------------------------------------------------------

 Structure from the checkpoint file:  "KLNPWTHGTVSSEU-UHFFFAOYSA-N_conf_0_2.chk"
 ----------------------------------
 KLNPWTHGTVSSEU-UHFFFAOYSA-N_conf_0
 ----------------------------------
 Charge =  0 Multiplicity = 1

                         Standard orientation:
 ---------------------------------------------------------------------
 Center     Atomic      Atomic             Coordinates (Angstroms)
 Number     Number       Type             X           Y           Z
 ---------------------------------------------------------------------
      1          7           0       -5.285846    1.032959    1.393767
      2          6           0       -4.930068    1.407684    0.015582
      3          6           0       -4.745227    0.169547   -0.870898
      4          6           0       -3.644213   -0.804778   -0.422918
      5          6           0       -2.218308   -0.245967   -0.519290
      6          6           0       -1.141668   -1.269440   -0.136230
      7          6           0        0.289099   -0.725132   -0.233596
      8          6           0        1.357554   -1.758705    0.149289
      9          6           0        2.809093   -1.277284   -0.012662
     10          6           0        3.211219   -0.139587    0.937456
     11          6           0        4.702339    0.230123    0.882870
     12          6           0        5.183101    0.835643   -0.442076
     13          7           0        4.461529    2.078869   -0.758294
     14          1           0       -5.396014    1.878242    1.950719
     15          1           0       -6.206674    0.595819    1.386484
     16          1           0       -3.995969    1.980554    0.057181
     17          1           0       -5.674545    2.066808   -0.462552
     18          1           0       -4.542258    0.508427   -1.895914
     19          1           0       -5.702544   -0.369122   -0.914810
     20          1           0       -3.709547   -1.711526   -1.039639
     21          1           0       -3.842748   -1.116379    0.609545
     22          1           0       -2.034695    0.106422   -1.544913
     23          1           0       -2.117554    0.635488    0.127920
     24          1           0       -1.237102   -2.154481   -0.781840
     25          1           0       -1.326200   -1.621905    0.888866
     26          1           0        0.378885    0.161280    0.407972
     27          1           0        0.475717   -0.377873   -1.260355
     28          1           0        1.213585   -2.656388   -0.467687
     29          1           0        1.196106   -2.077391    1.189408
     30          1           0        2.964895   -0.966041   -1.054373
     31          1           0        3.482553   -2.129828    0.153681
     32          1           0        2.619217    0.756080    0.721364
     33          1           0        2.963746   -0.437133    1.965968
     34          1           0        5.310298   -0.660539    1.092580
     35          1           0        4.923228    0.943980    1.689242
     36          1           0        6.276698    0.969606   -0.383699
     37          1           0        5.004427    0.129542   -1.261737
     38          1           0        4.704637    2.783913   -0.063395
     39          1           0        4.804551    2.447032   -1.643496
 ---------------------------------------------------------------------

 SCF Done:  E(RB3LYP) =  -544.379972548     A.U. after    1 cycles

 Excitation energies and oscillator strengths:

 Excited State   1:      Singlet-A      7.3267 eV  169.22 nm  f=0.0138  <S**2>=0.000
      52 -> 54         0.41841
      52 -> 55         0.43181
      53 -> 54         0.23898
      53 -> 55         0.22312
 This state for optimization and/or second-order correction.
 Total Energy, E(TD-HF/TD-DFT) =  -544.110722595
 Copying the excited state density for this state as the 1-particle RhoCI density.

 Excited State   2:      Singlet-A      7.3276 eV  169.20 nm  f=0.0139  <S**2>=0.000
      52 -> 54         0.23774
      52 -> 55        -0.22405
      53 -> 54        -0.41673
      53 -> 55         0.43408

 Excited State   3:      Singlet-A      8.2844 eV  149.66 nm  f=0.0001  <S**2>=0.000
      52 -> 54         0.44529
      52 -> 55        -0.41732
      52 -> 56         0.10993
      53 -> 54         0.24691
      53 -> 55        -0.22237

 Excited State   4:      Singlet-A      8.3037 eV  149.31 nm  f=0.0001  <S**2>=0.000
      52 -> 54        -0.24872
      52 -> 55        -0.22156
      53 -> 54         0.44840
      53 -> 55         0.41732

 Excited State   5:      Singlet-A      8.4784 eV  146.24 nm  f=0.0084  <S**2>=0.000
      52 -> 55         0.16048
      52 -> 56         0.49133
      52 -> 57         0.19402
      52 -> 59        -0.21658
      53 -> 56         0.29192
      53 -> 59        -0.11687

 Excited State   6:      Singlet-A      8.4871 eV  146.09 nm  f=0.0085  <S**2>=0.000
      52 -> 56        -0.27042
      52 -> 57         0.10323
      52 -> 58        -0.11665
      52 -> 60        -0.10652
      53 -> 55        -0.15190
      53 -> 56         0.45171
      53 -> 57        -0.21172
      53 -> 58         0.22218
      53 -> 60         0.19027
      53 -> 61        -0.10339

 Excited State   7:      Singlet-A      8.5863 eV  144.40 nm  f=0.0121  <S**2>=0.000
      52 -> 56        -0.26982
      52 -> 57         0.40777
      52 -> 58         0.10875
      52 -> 59        -0.21485
      52 -> 61        -0.22262
      52 -> 62        -0.14510
      53 -> 56        -0.14573
      53 -> 57         0.22055
      53 -> 59        -0.11742
      53 -> 61        -0.12171

 Excited State   8:      Singlet-A      8.6204 eV  143.83 nm  f=0.0122  <S**2>=0.000
      52 -> 56        -0.15851
      52 -> 57        -0.18556
      52 -> 59        -0.15672
      52 -> 60         0.10357
      53 -> 56         0.28744
      53 -> 57         0.34364
      53 -> 59         0.29002
      53 -> 60        -0.19119
      53 -> 61         0.12647
      53 -> 62        -0.12401
      53 -> 63        -0.10112

 Excited State   9:      Singlet-A      8.7213 eV  142.16 nm  f=0.0365  <S**2>=0.000
      52 -> 58         0.41770
      52 -> 59        -0.14998
      52 -> 60        -0.33786
      52 -> 63         0.18062
      53 -> 58         0.22778
      53 -> 60        -0.18397

 Excited State  10:      Singlet-A      8.7362 eV  141.92 nm  f=0.0378  <S**2>=0.000
      52 -> 56         0.11054
      52 -> 57        -0.10352
      52 -> 58        -0.16749
      52 -> 60        -0.17595
      53 -> 56        -0.20121
      53 -> 57         0.19000
      53 -> 58         0.30758
      53 -> 59         0.15776
      53 -> 60         0.32528
      53 -> 61         0.17261
      53 -> 62        -0.14441
      53 -> 63         0.14796

 The electronic state is 1-A.
 Alpha  occ. eigenvalues --  -14.30770 -14.30765 -10.19950 -10.19947 -10.17379
 Alpha  occ. eigenvalues --  -10.17379 -10.17244 -10.17194 -10.17144 -10.17128
 Alpha  occ. eigenvalues --  -10.17100 -10.16983 -10.16931  -0.87228  -0.87225
 Alpha  occ. eigenvalues --   -0.80349  -0.78471  -0.75804  -0.72618  -0.68735
 Alpha  occ. eigenvalues --   -0.65173  -0.62343  -0.58923  -0.57330  -0.55575
 Alpha  occ. eigenvalues --   -0.54634  -0.48217  -0.48167  -0.47013  -0.45880
 Alpha  occ. eigenvalues --   -0.44874  -0.43623  -0.43102  -0.42503  -0.42053
 Alpha  occ. eigenvalues --   -0.39951  -0.38793  -0.38445  -0.36918  -0.36094
 Alpha  occ. eigenvalues --   -0.35793  -0.34446  -0.34122  -0.33206  -0.32852
 Alpha  occ. eigenvalues --   -0.31879  -0.31531  -0.31003  -0.30662  -0.30127
 Alpha  occ. eigenvalues --   -0.29209  -0.23367  -0.23362
 Alpha virt. eigenvalues --    0.08231   0.08286   0.10080   0.11306   0.11689
 Alpha virt. eigenvalues --    0.12049   0.12683   0.13045   0.13710   0.14028
 Alpha virt. eigenvalues --    0.15517   0.15629   0.16200   0.16866   0.17651

 Mulliken charges:
               1
     1  N   -0.633337
     2  C   -0.051200
     3  C   -0.186023
     4  C   -0.165671
     5  C   -0.175676
     6  C   -0.176904
     7  C   -0.171294
     8  C   -0.182050
     9  C   -0.152684
    10  C   -0.152196
    11  C   -0.156610
    12  C   -0.077702
    13  N   -0.061454
    14  H    0.250799
    15  H    0.247796
    16  H    0.101785
    17  H    0.079041
    18  H    0.090232
    19  H    0.088227
    20  H    0.083469
    21  H    0.093965
    22  H    0.085453
    23  H    0.092345
    24  H    0.086695
    25  H    0.087575
    26  H    0.090468
    27  H    0.084347
    28  H    0.083834
    29  H    0.085382
    30  H    0.051472
    31  H    0.071350
    32  H    0.069227
    33  H    0.074773
    34  H    0.063946
    35  H    0.056256
    36  H    0.105442
    37  H    0.085744
    38  H    0.022129
    39  H    0.011051
 Sum of Mulliken charges =   0.00000

 Dipole moment (field-independent basis, Debye):
    X=             -0.6605    Y=              1.2432    Z=             -0.7209  Tot=              1.5816
 Quadrupole moment (field-independent basis, Debye-Ang):
   XX=            -69.6328   YY=            -87.2638   ZZ=            -89.9983
   XY=             -5.7797   XZ=             -1.7197   YZ=              1.6108

 Summary of Natural Population Analysis:

                                       Natural Population
                Natural  -----------------------------------------------
    Atom  No    Charge         Core      Valence    Rydberg      Total
 -----------------------------------------------------------------------
      N    1   -0.93290      1.99968     5.91831    0.01491     7.93290
      C    2   -0.26228      1.99936     4.24936    0.01356     6.26228
      C    3   -0.47369      1.99933     4.46271    0.01165     6.47369
      C    4   -0.46281      1.99933     4.45179    0.01168     6.46281
      C    5   -0.45966      1.99934     4.44955    0.01077     6.45966
      C    6   -0.45461      1.99934     4.44457    0.01069     6.45461
      C    7   -0.45981      1.99934     4.44952    0.01095     6.45981
      C    8   -0.45772      1.99934     4.44698    0.01140     6.45772
      C    9   -0.46615      1.99933     4.45453    0.01229     6.46615
      C   10   -0.46397      1.99932     4.45296    0.01168     6.46397
      C   11   -0.47493      1.99932     4.46273    0.01287     6.47493
      C   12   -0.36139      1.99930     4.34288    0.01920     6.36139
      N   13   -0.37424      1.99934     5.35151    0.02339     7.37424
      H   14    0.39020      0.00000     0.60717    0.00264     0.60980
      H   15    0.38245      0.00000     0.61450    0.00305     0.61755
      H   16    0.22226      0.00000     0.77577    0.00196     0.77774
      H   17    0.20753      0.00000     0.78995    0.00252     0.79247
      H   18    0.23581      0.00000     0.76225    0.00194     0.76419
      H   19    0.23319      0.00000     0.76473    0.00208     0.76681
      H   20    0.23130      0.00000     0.76669    0.00201     0.76870
      H   21    0.23551      0.00000     0.76174    0.00275     0.76449
      H   22    0.22579      0.00000     0.77191    0.00230     0.77421
      H   23    0.22723      0.00000     0.77060    0.00217     0.77277
      H   24    0.22642      0.00000     0.77130    0.00229     0.77358
      H   25    0.22749      0.00000     0.77025    0.00227     0.77251
      H   26    0.22629      0.00000     0.77101    0.00269     0.77371
      H   27    0.22532      0.00000     0.77152    0.00316     0.77468
      H   28    0.23230      0.00000     0.76539    0.00231     0.76770
      H   29    0.22616      0.00000     0.77110    0.00274     0.77384
      H   30    0.19965      0.00000     0.78605    0.01430     0.80035
      H   31    0.22680      0.00000     0.76707    0.00613     0.77320
      H   32    0.21225      0.00000     0.77731    0.01044     0.78775
      H   33    0.22385      0.00000     0.76906    0.00709     0.77615
      H   34    0.20902      0.00000     0.77785    0.01313     0.79098
      H   35    0.21363      0.00000     0.76599    0.02039     0.78637
      H   36    0.24858      0.00000     0.71822    0.03320     0.75142
      H   37    0.21427      0.00000     0.75967    0.02606     0.78573
      H   38    0.20756      0.00000     0.70953    0.08291     0.79244
      H   39    0.19162      0.00000     0.72555    0.08282     0.80838
 =======================================================================
   * Total *   -0.00165     25.99168    79.49958    0.51039   106.00165

 Normal termination of Gaussian 16 at Thu Jul 18 06:30:41 2024.
