 Gaussian 16, Revision A.03,

 -------------------------------------------------------
 # opt=CalcFc B3LYP/6-31G** SCRF=(Solvent=water) scf=xqc
 -------------------------------------------------------

 ----------------------------------
 SCZVXVGZMZRGRU-UHFFFAOYSA-N_conf_1
 ----------------------------------
 Symbolic Z-matrix:
 Charge =  0 Multiplicity = 1

 SCF Done:  E(RB3LYP) =  -269.160508607     A.U. after   11 cycles
 SCF Done:  E(RB3LYP) =  -269.163178594     A.U. after    9 cycles
 SCF Done:  E(RB3LYP) =  -269.163475230     A.U. after    9 cycles
 SCF Done:  E(RB3LYP) =  -269.163492082     A.U. after    8 cycles
 SCF Done:  E(RB3LYP) =  -269.163492719     A.U. after    7 cycles
 SCF Done:  E(RB3LYP) =  -269.163492712     A.U. after    6 cycles
 Optimization completed.
    -- Stationary point found.
 Normal termination of Gaussian 16 at Thu Jul 11 18:29:36 2024.

 ----------------------------------------------------------------------
 # freq B3LYP/6-31G** SCRF=(Solvent=water) volume NMR pop=NPA density=c
 urrent Geom=AllCheck Guess=Read
 ----------------------------------------------------------------------

 Structure from the checkpoint file:  "SCZVXVGZMZRGRU-UHFFFAOYSA-N_conf_1_1.chk"
 ----------------------------------
 SCZVXVGZMZRGRU-UHFFFAOYSA-N_conf_1
 ----------------------------------
 Charge =  0 Multiplicity = 1

 SCF Done:  E(RB3LYP) =  -269.163492712     A.U. after    1 cycles

      1  C    Isotropic =   175.0907   Anisotropy =    25.5099

      2  C    Isotropic =   150.2942   Anisotropy =    37.8022

      3  N    Isotropic =   226.6443   Anisotropy =    51.4202

      4  C    Isotropic =   138.1804   Anisotropy =    26.7724

      5  C    Isotropic =   152.2157   Anisotropy =    37.5434

      6  N    Isotropic =   244.4853   Anisotropy =    51.7282

      7  H    Isotropic =    30.6901   Anisotropy =     9.9682

      8  H    Isotropic =    30.6599   Anisotropy =     8.3268

      9  H    Isotropic =    30.8418   Anisotropy =     7.8919

     10  H    Isotropic =    28.5865   Anisotropy =     6.4709

     11  H    Isotropic =    29.7172   Anisotropy =     7.0354

     12  H    Isotropic =    30.9748   Anisotropy =    10.6812

     13  H    Isotropic =    29.2367   Anisotropy =     6.6556

     14  H    Isotropic =    29.2649   Anisotropy =     8.9459

     15  H    Isotropic =    29.6160   Anisotropy =     8.6738

     16  H    Isotropic =    28.8077   Anisotropy =     6.2278

     17  H    Isotropic =    30.8272   Anisotropy =    12.2963

     18  H    Isotropic =    32.0389   Anisotropy =    14.8849

  Exact polarizability:  79.328  -3.758  71.204  -3.410  -2.947  69.447
 Approx polarizability:  79.364  -2.658  77.447  -3.416  -2.870  76.833

                      1                      2                      3
                      A                      A                      A
 Frequencies --     75.8697                83.9486               171.3191
 Red. masses --      2.8050                 1.8991                 1.9059
 Frc consts  --      0.0095                 0.0079                 0.0330
 IR Inten    --      0.0775                 1.9944                 5.9554

                      4                      5                      6
                      A                      A                      A
 Frequencies --    241.5093               272.5916               292.5832
 Red. masses --      1.7511                 1.3856                 1.4795
 Frc consts  --      0.0602                 0.0607                 0.0746
 IR Inten    --      4.6666                21.0509                52.4712

                      7                      8                      9
                      A                      A                      A
 Frequencies --    332.6210               434.6973               538.3270
 Red. masses --      1.7348                 2.0966                 2.1515
 Frc consts  --      0.1131                 0.2334                 0.3674
 IR Inten    --     13.9848                 7.3333                 4.4775

                     10                     11                     12
                      A                      A                      A
 Frequencies --    736.4732               802.9185               817.7620
 Red. masses --      1.3061                 1.7330                 1.1420
 Frc consts  --      0.4174                 0.6582                 0.4500
 IR Inten    --    193.9059                25.1288                 5.2370

                     13                     14                     15
                      A                      A                      A
 Frequencies --    856.9912               917.5970               941.9631
 Red. masses --      2.6891                 1.6337                 1.2798
 Frc consts  --      1.1636                 0.8105                 0.6690
 IR Inten    --     75.4351               103.9558                91.0798

                     16                     17                     18
                      A                      A                      A
 Frequencies --   1007.0956              1046.9989              1092.4061
 Red. masses --      1.5984                 2.6196                 1.9321
 Frc consts  --      0.9551                 1.6919                 1.3585
 IR Inten    --     22.2810                 3.8961                12.4989

                     19                     20                     21
                      A                      A                      A
 Frequencies --   1128.5345              1135.5391              1175.3665
 Red. masses --      1.7387                 2.6186                 1.8351
 Frc consts  --      1.3047                 1.9894                 1.4937
 IR Inten    --      5.3697                46.0015                23.2059

                     22                     23                     24
                      A                      A                      A
 Frequencies --   1222.3068              1283.4057              1331.7240
 Red. masses --      1.6893                 1.2403                 1.1795
 Frc consts  --      1.4870                 1.2037                 1.2325
 IR Inten    --     24.4467                 1.5054                 5.2109

                     25                     26                     27
                      A                      A                      A
 Frequencies --   1381.2415              1383.9468              1400.7158
 Red. masses --      1.3081                 1.2811                 1.1923
 Frc consts  --      1.4704                 1.4457                 1.3783
 IR Inten    --     26.0774                 4.2315                 8.4481

                     28                     29                     30
                      A                      A                      A
 Frequencies --   1404.8419              1423.3307              1477.8530
 Red. masses --      1.2512                 1.3320                 1.1016
 Frc consts  --      1.4549                 1.5899                 1.4175
 IR Inten    --      4.8060                12.5814                 5.4107

                     31                     32                     33
                      A                      A                      A
 Frequencies --   1486.7953              1494.5164              1500.3063
 Red. masses --      1.1165                 1.0855                 1.0434
 Frc consts  --      1.4541                 1.4285                 1.3837
 IR Inten    --     14.0490                 2.3886                10.0396

                     34                     35                     36
                      A                      A                      A
 Frequencies --   1508.4159              1532.5259              1659.0196
 Red. masses --      1.1372                 1.0911                 1.0882
 Frc consts  --      1.5246                 1.5098                 1.7646
 IR Inten    --     14.7666                 5.1010                29.9970

                     37                     38                     39
                      A                      A                      A
 Frequencies --   2954.3324              3012.9321              3035.8154
 Red. masses --      1.0720                 1.0602                 1.0631
 Frc consts  --      5.5127                 5.6703                 5.7724
 IR Inten    --    114.0991                59.3013                65.4230

                     40                     41                     42
                      A                      A                      A
 Frequencies --   3039.7732              3043.0011              3056.0381
 Red. masses --      1.0428                 1.0814                 1.1025
 Frc consts  --      5.6771                 5.9001                 6.0664
 IR Inten    --     21.4240                53.6931                78.1751

                     43                     44                     45
                      A                      A                      A
 Frequencies --   3080.9328              3107.1448              3121.8195
 Red. masses --      1.1038                 1.1012                 1.1032
 Frc consts  --      6.1730                 6.2640                 6.3347
 IR Inten    --     90.7317                65.8933                51.6227

                     46                     47                     48
                      A                      A                      A
 Frequencies --   3470.7548              3493.7119              3552.9153
 Red. masses --      1.0498                 1.0736                 1.0919
 Frc consts  --      7.4511                 7.7212                 8.1212
 IR Inten    --      1.6460                 2.3307                 0.2212

 - Thermochemistry -
 -------------------
 Temperature   298.150 Kelvin.  Pressure   1.00000 Atm.
 Atom     1 has atomic number  6 and mass  12.00000

 Molecular mass:    88.10005 amu.
 Principal axes and moments of inertia in atomic units:
                           1         2         3
     Eigenvalues --   259.434121079.477981168.50566
           X            0.99979  -0.02006  -0.00517
           Y            0.01967   0.99760  -0.06634
           Z            0.00648   0.06622   0.99778
 This molecule is an asymmetric top.
 Rotational symmetry number  1.
 Rotational temperatures (Kelvin)      0.33386     0.08024     0.07412
 Rotational constants (GHZ):           6.95645     1.67186     1.54449
 Zero-point vibrational energy     440005.8 (Joules/Mol)
                                  105.16392 (Kcal/Mol)
 Warning -- explicit consideration of   9 degrees of freedom as
           vibrations may cause significant error
 Vibrational temperatures:    109.16   120.78   246.49   347.48   392.20
          (Kelvin)            420.96   478.57   625.43   774.53  1059.62
                             1155.22  1176.58  1233.02  1320.22  1355.27
                             1448.99  1506.40  1571.73  1623.71  1633.79
                             1691.09  1758.63  1846.53  1916.05  1987.30
                             1991.19  2015.32  2021.25  2047.86  2126.30
                             2139.17  2150.28  2158.61  2170.27  2204.96
                             2386.96  4250.63  4334.94  4367.86  4373.56
                             4378.20  4396.96  4432.78  4470.49  4491.60
                             4993.64  5026.67  5111.85

 Zero-point correction=                           0.167589 (Hartree/Particle)
 Thermal correction to Energy=                    0.175487
 Thermal correction to Enthalpy=                  0.176431
 Thermal correction to Gibbs Free Energy=         0.135546
 Sum of electronic and zero-point Energies=           -268.995903
 Sum of electronic and thermal Energies=              -268.988006
 Sum of electronic and thermal Enthalpies=            -268.987062
 Sum of electronic and thermal Free Energies=         -269.027947

                     E (Thermal)             CV                S
                      KCal/Mol        Cal/Mol-Kelvin    Cal/Mol-Kelvin
 Total                  110.120             27.855             86.050
 Electronic               0.000              0.000              0.000
 Translational            0.889              2.981             39.340
 Rotational               0.889              2.981             27.284
 Vibrational            108.342             21.894             19.426
 Vibration     1          0.599              1.965              3.995
 Vibration     2          0.601              1.960              3.796
 Vibration     3          0.626              1.878              2.421
 Vibration     4          0.658              1.777              1.792
 Vibration     5          0.676              1.724              1.580
 Vibration     6          0.688              1.688              1.459
 Vibration     7          0.715              1.610              1.247
 Vibration     8          0.795              1.395              0.843
 Vibration     9          0.893              1.165              0.569

 Optimization completed.
    -- Stationary point found.
 Normal termination of Gaussian 16 at Thu Jul 11 18:37:38 2024.
 Gaussian 16:  EM64L-G16RevA.03 25-Dec-2016

 ----------------------------------------------------------------------
 # TD(NStates=10, Root=1) B3LYP/6-31G** SCRF=(Solvent=water) volume pop
 =NPA density=current Geom=AllCheck Guess=Read
 ----------------------------------------------------------------------

 Structure from the checkpoint file:  "SCZVXVGZMZRGRU-UHFFFAOYSA-N_conf_1_2.chk"
 ----------------------------------
 SCZVXVGZMZRGRU-UHFFFAOYSA-N_conf_1
 ----------------------------------
 Charge =  0 Multiplicity = 1

                         Standard orientation:
 ---------------------------------------------------------------------
 Center     Atomic      Atomic             Coordinates (Angstroms)
 Number     Number       Type             X           Y           Z
 ---------------------------------------------------------------------
      1          6           0       -2.720923    0.464707   -0.036265
      2          6           0       -1.387689   -0.068250    0.484230
      3          7           0       -0.508373   -0.442450   -0.627670
      4          6           0        0.768527   -1.045090   -0.238330
      5          6           0        1.754213   -0.158152    0.551122
      6          7           0        2.193160    1.071618   -0.122702
      7          1           0       -3.390655    0.713255    0.792948
      8          1           0       -3.214064   -0.276930   -0.672271
      9          1           0       -2.575224    1.374863   -0.629744
     10          1           0       -0.944670    0.676245    1.168491
     11          1           0       -1.559246   -0.970940    1.085292
     12          1           0       -0.329380    0.378348   -1.204367
     13          1           0        0.551158   -1.946000    0.351856
     14          1           0        1.268159   -1.383573   -1.156563
     15          1           0        2.643689   -0.758104    0.782116
     16          1           0        1.316260    0.126705    1.515002
     17          1           0        1.386329    1.666401   -0.303966
     18          1           0        2.569366    0.836266   -1.040728
 ---------------------------------------------------------------------

 SCF Done:  E(RB3LYP) =  -269.163492712     A.U. after    1 cycles

 Excitation energies and oscillator strengths:

 Excited State   1:      Singlet-A      6.4744 eV  191.50 nm  f=0.0131  <S**2>=0.000
      25 -> 26         0.70341
 This state for optimization and/or second-order correction.
 Total Energy, E(TD-HF/TD-DFT) =  -268.925563246
 Copying the excited state density for this state as the 1-particle RhoCI density.

 Excited State   2:      Singlet-A      7.4000 eV  167.55 nm  f=0.0429  <S**2>=0.000
      24 -> 26         0.68469
      25 -> 28         0.10389

 Excited State   3:      Singlet-A      7.7945 eV  159.07 nm  f=0.0697  <S**2>=0.000
      25 -> 27         0.57540
      25 -> 28        -0.39880

 Excited State   4:      Singlet-A      7.9776 eV  155.42 nm  f=0.0134  <S**2>=0.000
      24 -> 26        -0.10603
      25 -> 27         0.39430
      25 -> 28         0.55264
      25 -> 29        -0.11695

 Excited State   5:      Singlet-A      8.2847 eV  149.65 nm  f=0.0159  <S**2>=0.000
      25 -> 29         0.67849
      25 -> 30        -0.12098

 Excited State   6:      Singlet-A      8.6276 eV  143.71 nm  f=0.0942  <S**2>=0.000
      24 -> 27         0.25449
      24 -> 28         0.18467
      24 -> 29        -0.11954
      25 -> 30         0.57235
      25 -> 31         0.19906

 Excited State   7:      Singlet-A      8.7332 eV  141.97 nm  f=0.0030  <S**2>=0.000
      24 -> 27        -0.17940
      24 -> 28         0.26677
      25 -> 30        -0.21422
      25 -> 31         0.56212

 Excited State   8:      Singlet-A      8.8913 eV  139.44 nm  f=0.0180  <S**2>=0.000
      24 -> 27         0.60205
      24 -> 30        -0.13803
      25 -> 30        -0.28619

 Excited State   9:      Singlet-A      9.0004 eV  137.75 nm  f=0.0415  <S**2>=0.000
      24 -> 28         0.54374
      24 -> 29        -0.22306
      25 -> 31        -0.34313

 Excited State  10:      Singlet-A      9.2704 eV  133.74 nm  f=0.0235  <S**2>=0.000
      24 -> 27         0.11486
      24 -> 28         0.12101
      24 -> 29         0.17988
      25 -> 32         0.59317
      25 -> 33         0.25628

 The electronic state is 1-A.
 Alpha  occ. eigenvalues --  -14.31345 -14.31220 -10.20293 -10.20016 -10.19969
 Alpha  occ. eigenvalues --  -10.17204  -0.90143  -0.86610  -0.74498  -0.68966
 Alpha  occ. eigenvalues --   -0.61438  -0.58525  -0.49235  -0.47767  -0.45025
 Alpha  occ. eigenvalues --   -0.43539  -0.41426  -0.40948  -0.36929  -0.36313
 Alpha  occ. eigenvalues --   -0.35274  -0.34008  -0.33153  -0.24798  -0.21211
 Alpha virt. eigenvalues --    0.06857   0.11501   0.11665   0.13188   0.14723
 Alpha virt. eigenvalues --    0.15053   0.16627   0.17439   0.18714   0.18840
 Alpha virt. eigenvalues --    0.20816   0.21944   0.23479   0.24513   0.24676

 Mulliken charges:
               1
     1  C   -0.324850
     2  C   -0.032210
     3  N   -0.218590
     4  C   -0.076944
     5  C   -0.082524
     6  N   -0.396377
     7  H    0.111364
     8  H    0.117431
     9  H    0.088711
    10  H    0.057418
    11  H    0.118980
    12  H    0.052985
    13  H    0.148075
    14  H    0.116939
    15  H    0.129944
    16  H    0.104296
    17  H   -0.031551
    18  H    0.116902
 Sum of Mulliken charges =  -0.00000

 Dipole moment (field-independent basis, Debye):
    X=             -1.8741    Y=             -3.7262    Z=              0.4907  Tot=              4.1997
 Quadrupole moment (field-independent basis, Debye-Ang):
   XX=            -44.1577   YY=            -43.7187   ZZ=            -40.4596
   XY=             -5.5949   XZ=             -1.4127   YZ=             -0.5257

 Summary of Natural Population Analysis:

                                       Natural Population
                Natural  -----------------------------------------------
    Atom  No    Charge         Core      Valence    Rydberg      Total
 -----------------------------------------------------------------------
      C    1   -0.70789      1.99946     4.69891    0.00953     6.70789
      C    2   -0.32113      1.99934     4.30370    0.01810     6.32113
      N    3   -0.32709      1.99940     5.31397    0.01372     7.32709
      C    4   -0.33206      1.99932     4.31532    0.01743     6.33206
      C    5   -0.30971      1.99935     4.28982    0.02054     6.30971
      N    6   -0.83040      1.99962     5.80818    0.02260     7.83040
      H    7    0.23984      0.00000     0.75613    0.00403     0.76016
      H    8    0.23866      0.00000     0.75768    0.00366     0.76134
      H    9    0.21690      0.00000     0.77008    0.01302     0.78310
      H   10    0.19323      0.00000     0.76930    0.03747     0.80677
      H   11    0.24061      0.00000     0.75015    0.00924     0.75939
      H   12    0.23088      0.00000     0.69268    0.07644     0.76912
      H   13    0.26172      0.00000     0.73331    0.00497     0.73828
      H   14    0.24649      0.00000     0.73895    0.01456     0.75351
      H   15    0.25382      0.00000     0.73940    0.00678     0.74618
      H   16    0.22834      0.00000     0.75832    0.01334     0.77166
      H   17    0.17623      0.00000     0.74933    0.07444     0.82377
      H   18    0.30158      0.00000     0.65964    0.03878     0.69842
 =======================================================================
   * Total *    0.00000     11.99648    37.60486    0.39866    50.00000

 1\1\GINC-CN36\SP\RB3LYP TD-FC\6-31G(d,p)\C4H12N2\QDUEZ\11-Jul-2024\0\\
 # TD(NStates=10, Root=1) B3LYP/6-31G** SCRF=(Solvent=water) volume pop
 =NPA density=current Geom=AllCheck Guess=Read\\SCZVXVGZMZRGRU-UHFFFAOY
 SA-N_conf_1\\0,1\C,0,-2.4708463236,-0.9287034956,0.0076798074\C,0,-1.3
 105488374,0.0145229786,-0.3029726429\N,0,-0.364634745,0.0603020211,0.8
 162650034\C,0,0.7464628772,1.001159279,0.656624216\C,0,1.7473699848,0.
 7218845729,-0.4842799626\N,0,2.4494237066,-0.5674026635,-0.4217735694\
 H,0,-3.194597696,-0.9382939317,-0.8132967591\H,0,-2.9862873181,-0.6220

 Normal termination of Gaussian 16 at Thu Jul 11 18:49:06 2024.
