 Gaussian 16, Revision A.03,

 -------------------------------------------------------
 # opt=CalcFc B3LYP/6-31G** SCRF=(Solvent=water) scf=xqc
 -------------------------------------------------------

 ----------------------------------
 SCZVXVGZMZRGRU-UHFFFAOYSA-N_conf_0
 ----------------------------------
 Symbolic Z-matrix:
 Charge =  0 Multiplicity = 1

 SCF Done:  E(RB3LYP) =  -269.162657128     A.U. after   10 cycles
 SCF Done:  E(RB3LYP) =  -269.164603991     A.U. after    9 cycles
 SCF Done:  E(RB3LYP) =  -269.164619012     A.U. after    8 cycles
 SCF Done:  E(RB3LYP) =  -269.164619063     A.U. after    6 cycles
 Optimization completed.
    -- Stationary point found.
 Normal termination of Gaussian 16 at Thu Jul 11 18:26:48 2024.

 ----------------------------------------------------------------------
 # freq B3LYP/6-31G** SCRF=(Solvent=water) volume NMR pop=NPA density=c
 urrent Geom=AllCheck Guess=Read
 ----------------------------------------------------------------------

 Structure from the checkpoint file:  "SCZVXVGZMZRGRU-UHFFFAOYSA-N_conf_0_1.chk"
 ----------------------------------
 SCZVXVGZMZRGRU-UHFFFAOYSA-N_conf_0
 ----------------------------------
 Charge =  0 Multiplicity = 1

 SCF Done:  E(RB3LYP) =  -269.164619063     A.U. after    1 cycles

      1  C    Isotropic =   175.2662   Anisotropy =    25.2085

      2  C    Isotropic =   144.7614   Anisotropy =    45.6596

      3  N    Isotropic =   209.2583   Anisotropy =    30.1022

      4  C    Isotropic =   133.4538   Anisotropy =    56.6297

      5  C    Isotropic =   146.5338   Anisotropy =    39.3171

      6  N    Isotropic =   237.5764   Anisotropy =    21.7994

      7  H    Isotropic =    30.6807   Anisotropy =     9.8136

      8  H    Isotropic =    30.8239   Anisotropy =     7.9227

      9  H    Isotropic =    30.6321   Anisotropy =     8.1435

     10  H    Isotropic =    29.0164   Anisotropy =     6.9367

     11  H    Isotropic =    29.3366   Anisotropy =     6.3733

     12  H    Isotropic =    31.8568   Anisotropy =     9.4197

     13  H    Isotropic =    29.1998   Anisotropy =     5.1809

     14  H    Isotropic =    29.4602   Anisotropy =     4.3759

     15  H    Isotropic =    29.3155   Anisotropy =     5.4467

     16  H    Isotropic =    29.1024   Anisotropy =     5.5699

     17  H    Isotropic =    31.4501   Anisotropy =    13.1936

     18  H    Isotropic =    31.3544   Anisotropy =    13.0632

  Exact polarizability:  82.274   2.471  69.741  -0.105   1.028  68.688
 Approx polarizability:  79.475   2.244  76.085  -0.134   1.348  76.295

                      1                      2                      3
                      A                      A                      A
 Frequencies --     76.2124               105.3863               135.6766
 Red. masses --      2.9151                 1.6120                 3.2665
 Frc consts  --      0.0100                 0.0105                 0.0354
 IR Inten    --      0.1703                 3.5452                 1.8626

                      4                      5                      6
                      A                      A                      A
 Frequencies --    167.1401               258.4815               301.5697
 Red. masses --      2.4337                 1.1258                 1.1073
 Frc consts  --      0.0401                 0.0443                 0.0593
 IR Inten    --      3.0138                 1.4693                78.0807

                      7                      8                      9
                      A                      A                      A
 Frequencies --    320.3587               383.8150               504.4957
 Red. masses --      2.8407                 3.8562                 2.8498
 Frc consts  --      0.1718                 0.3347                 0.4273
 IR Inten    --      6.1793                 1.4871                 9.3873

                     10                     11                     12
                      A                      A                      A
 Frequencies --    788.7285               800.0793               826.2873
 Red. masses --      1.0957                 1.2271                 1.2092
 Frc consts  --      0.4016                 0.4628                 0.4864
 IR Inten    --     10.1958               110.1856                20.9986

                     13                     14                     15
                      A                      A                      A
 Frequencies --    900.7351               924.6026              1006.1761
 Red. masses --      1.8718                 1.4523                 1.2028
 Frc consts  --      0.8948                 0.7315                 0.7174
 IR Inten    --    160.8790                65.8835                 6.1022

                     16                     17                     18
                      A                      A                      A
 Frequencies --   1039.8337              1057.7620              1098.9863
 Red. masses --      3.1709                 2.6116                 2.3249
 Frc consts  --      2.0201                 1.7216                 1.6544
 IR Inten    --     14.1094                61.8400                 8.4779

                     19                     20                     21
                      A                      A                      A
 Frequencies --   1130.4809              1140.8610              1162.0392
 Red. masses --      1.3632                 3.1991                 2.3219
 Frc consts  --      1.0265                 2.4533                 1.8473
 IR Inten    --     22.4810                56.4263                 9.9695

                     22                     23                     24
                      A                      A                      A
 Frequencies --   1245.7728              1299.8629              1326.0461
 Red. masses --      1.6438                 1.2182                 1.1426
 Frc consts  --      1.5031                 1.2127                 1.1837
 IR Inten    --      8.4797                 2.3391                 4.2306

                     25                     26                     27
                      A                      A                      A
 Frequencies --   1332.5567              1382.1094              1393.8109
 Red. masses --      1.2360                 1.2616                 1.2237
 Frc consts  --      1.2931                 1.4199                 1.4007
 IR Inten    --     45.7288                 1.3040                 1.2492

                     28                     29                     30
                      A                      A                      A
 Frequencies --   1415.1164              1433.0928              1485.9341
 Red. masses --      1.2890                 1.4575                 1.1206
 Frc consts  --      1.5208                 1.7637                 1.4577
 IR Inten    --      1.7984                 8.0851                21.4240

                     31                     32                     33
                      A                      A                      A
 Frequencies --   1496.5764              1500.4496              1507.2744
 Red. masses --      1.0818                 1.0412                 1.1355
 Frc consts  --      1.4275                 1.3811                 1.5200
 IR Inten    --      2.8745                 9.5745                20.6668

                     34                     35                     36
                      A                      A                      A
 Frequencies --   1521.6629              1533.8410              1661.0184
 Red. masses --      1.0875                 1.0918                 1.0887
 Frc consts  --      1.4835                 1.5134                 1.7697
 IR Inten    --      6.3749                 0.9470                32.1723

                     37                     38                     39
                      A                      A                      A
 Frequencies --   2917.0615              2932.2853              3026.7101
 Red. masses --      1.0724                 1.0736                 1.0709
 Frc consts  --      5.3766                 5.4388                 5.7802
 IR Inten    --    127.2895               160.2976                18.8876

                     40                     41                     42
                      A                      A                      A
 Frequencies --   3035.3271              3039.5462              3042.3432
 Red. masses --      1.0779                 1.0468                 1.0760
 Frc consts  --      5.8513                 5.6983                 5.8678
 IR Inten    --     94.5410                20.4326                73.4266

                     43                     44                     45
                      A                      A                      A
 Frequencies --   3079.7612              3107.1306              3122.0515
 Red. masses --      1.1031                 1.1012                 1.1031
 Frc consts  --      6.1644                 6.2636                 6.3348
 IR Inten    --     81.0468                65.5962                49.7430

                     46                     47                     48
                      A                      A                      A
 Frequencies --   3473.7822              3481.2904              3551.6833
 Red. masses --      1.0501                 1.0736                 1.0918
 Frc consts  --      7.4657                 7.6663                 8.1143
 IR Inten    --      1.1269                 1.5866                 0.0535

 - Thermochemistry -
 -------------------
 Temperature   298.150 Kelvin.  Pressure   1.00000 Atm.
 Atom     1 has atomic number  6 and mass  12.00000

 Molecular mass:    88.10005 amu.
 Principal axes and moments of inertia in atomic units:
                           1         2         3
     Eigenvalues --   113.403971512.286871566.96352
           X            0.99998   0.00554   0.00080
           Y           -0.00556   0.99952   0.03041
           Z           -0.00063  -0.03041   0.99954
 This molecule is an asymmetric top.
 Rotational symmetry number  1.
 Rotational temperatures (Kelvin)      0.76376     0.05727     0.05528
 Rotational constants (GHZ):          15.91427     1.19339     1.15174
 Zero-point vibrational energy     439470.9 (Joules/Mol)
                                  105.03608 (Kcal/Mol)
 Warning -- explicit consideration of   9 degrees of freedom as
           vibrations may cause significant error
 Vibrational temperatures:    109.65   151.63   195.21   240.48   371.90
          (Kelvin)            433.89   460.92   552.22   725.86  1134.80
                             1151.14  1188.84  1295.96  1330.30  1447.66
                             1496.09  1521.88  1581.20  1626.51  1641.44
                             1671.92  1792.39  1870.21  1907.88  1917.25
                             1988.55  2005.38  2036.04  2061.90  2137.93
                             2153.24  2158.81  2168.63  2189.33  2206.86
                             2389.84  4197.00  4218.90  4354.76  4367.16
                             4373.23  4377.25  4431.09  4470.47  4491.94
                             4998.00  5008.80  5110.08

 Zero-point correction=                           0.167386 (Hartree/Particle)
 Thermal correction to Energy=                    0.175465
 Thermal correction to Enthalpy=                  0.176409
 Thermal correction to Gibbs Free Energy=         0.135190
 Sum of electronic and zero-point Energies=           -268.997233
 Sum of electronic and thermal Energies=              -268.989154
 Sum of electronic and thermal Enthalpies=            -268.988210
 Sum of electronic and thermal Free Energies=         -269.029429

                     E (Thermal)             CV                S
                      KCal/Mol        Cal/Mol-Kelvin    Cal/Mol-Kelvin
 Total                  110.106             27.895             86.752
 Electronic               0.000              0.000              0.000
 Translational            0.889              2.981             39.340
 Rotational               0.889              2.981             27.088
 Vibrational            108.329             21.933             20.324
 Vibration     1          0.599              1.965              3.986
 Vibration     2          0.605              1.945              3.352
 Vibration     3          0.614              1.918              2.864
 Vibration     4          0.624              1.883              2.467
 Vibration     5          0.667              1.748              1.672
 Vibration     6          0.694              1.671              1.408
 Vibration     7          0.706              1.635              1.308
 Vibration     8          0.753              1.505              1.024
 Vibration     9          0.860              1.240              0.647

 Optimization completed.
    -- Stationary point found.
 Normal termination of Gaussian 16 at Thu Jul 11 18:35:09 2024.
 Gaussian 16:  EM64L-G16RevA.03 25-Dec-2016

 ----------------------------------------------------------------------
 # TD(NStates=10, Root=1) B3LYP/6-31G** SCRF=(Solvent=water) volume pop
 =NPA density=current Geom=AllCheck Guess=Read
 ----------------------------------------------------------------------

 Structure from the checkpoint file:  "SCZVXVGZMZRGRU-UHFFFAOYSA-N_conf_0_2.chk"
 ----------------------------------
 SCZVXVGZMZRGRU-UHFFFAOYSA-N_conf_0
 ----------------------------------
 Charge =  0 Multiplicity = 1

                         Standard orientation:
 ---------------------------------------------------------------------
 Center     Atomic      Atomic             Coordinates (Angstroms)
 Number     Number       Type             X           Y           Z
 ---------------------------------------------------------------------
      1          6           0        3.096724    0.267056   -0.025767
      2          6           0        1.802720   -0.541759    0.010387
      3          7           0        0.628898    0.332226   -0.063538
      4          6           0       -0.637025   -0.395027    0.024240
      5          6           0       -1.835960    0.558378   -0.057397
      6          7           0       -3.154521   -0.083309    0.005907
      7          1           0        3.968700   -0.393731   -0.001413
      8          1           0        3.164892    0.939561    0.837307
      9          1           0        3.149040    0.876482   -0.933371
     10          1           0        1.792941   -1.184024    0.911129
     11          1           0        1.767883   -1.222401   -0.850427
     12          1           0        0.674842    0.989208    0.715165
     13          1           0       -0.722018   -1.003066    0.946437
     14          1           0       -0.684198   -1.101768   -0.816022
     15          1           0       -1.774121    1.287391    0.761742
     16          1           0       -1.770977    1.131332   -0.989646
     17          1           0       -3.229047   -0.763020   -0.749825
     18          1           0       -3.217338   -0.630265    0.863574
 ---------------------------------------------------------------------

 SCF Done:  E(RB3LYP) =  -269.164619063     A.U. after    1 cycles

 Excitation energies and oscillator strengths:

 Excited State   1:      Singlet-A      7.2586 eV  170.81 nm  f=0.0227  <S**2>=0.000
      25 -> 26         0.30427
      25 -> 27         0.62767
 This state for optimization and/or second-order correction.
 Total Energy, E(TD-HF/TD-DFT) =  -268.897871083
 Copying the excited state density for this state as the 1-particle RhoCI density.

 Excited State   2:      Singlet-A      7.4155 eV  167.20 nm  f=0.0115  <S**2>=0.000
      24 -> 26         0.47137
      25 -> 26        -0.45466
      25 -> 27         0.23779

 Excited State   3:      Singlet-A      7.6156 eV  162.80 nm  f=0.0289  <S**2>=0.000
      24 -> 26         0.49648
      24 -> 27        -0.12187
      25 -> 26         0.44053
      25 -> 27        -0.19117

 Excited State   4:      Singlet-A      8.1209 eV  152.67 nm  f=0.0281  <S**2>=0.000
      24 -> 27        -0.26152
      25 -> 28         0.63944

 Excited State   5:      Singlet-A      8.1437 eV  152.25 nm  f=0.0144  <S**2>=0.000
      24 -> 26         0.15529
      24 -> 27         0.61098
      24 -> 28         0.11426
      25 -> 28         0.24588
      25 -> 29         0.10350

 Excited State   6:      Singlet-A      8.4827 eV  146.16 nm  f=0.0300  <S**2>=0.000
      25 -> 28        -0.12009
      25 -> 29         0.68311

 Excited State   7:      Singlet-A      8.7482 eV  141.73 nm  f=0.0852  <S**2>=0.000
      24 -> 28         0.54289
      24 -> 29         0.20459
      24 -> 30         0.20433
      24 -> 31        -0.15127
      25 -> 30        -0.28587

 Excited State   8:      Singlet-A      8.8562 eV  140.00 nm  f=0.1697  <S**2>=0.000
      24 -> 28         0.27538
      25 -> 30         0.63260

 Excited State   9:      Singlet-A      9.1467 eV  135.55 nm  f=0.0060  <S**2>=0.000
      24 -> 28        -0.28391
      24 -> 29         0.30515
      24 -> 30         0.54362

 Excited State  10:      Singlet-A      9.2838 eV  133.55 nm  f=0.0011  <S**2>=0.000
      24 -> 27         0.10926
      24 -> 29         0.57585
      24 -> 30        -0.33750
      25 -> 31        -0.11729

 The electronic state is 1-A.
 Alpha  occ. eigenvalues --  -14.31353 -14.31195 -10.20306 -10.20258 -10.19915
 Alpha  occ. eigenvalues --  -10.17257  -0.90082  -0.87121  -0.74682  -0.68427
 Alpha  occ. eigenvalues --   -0.60049  -0.60003  -0.49740  -0.47035  -0.45689
 Alpha  occ. eigenvalues --   -0.43518  -0.41652  -0.40217  -0.36696  -0.36184
 Alpha  occ. eigenvalues --   -0.35421  -0.34338  -0.33190  -0.23883  -0.22180
 Alpha virt. eigenvalues --    0.08673   0.09144   0.11964   0.12833   0.14083
 Alpha virt. eigenvalues --    0.15886   0.17023   0.17464   0.18675   0.19149
 Alpha virt. eigenvalues --    0.20388   0.20648   0.22331   0.24522   0.25309

 Mulliken charges:
               1
     1  C   -0.304277
     2  C   -0.031204
     3  N   -0.113779
     4  C   -0.062619
     5  C   -0.049617
     6  N   -0.627428
     7  H    0.087564
     8  H    0.055993
     9  H    0.105956
    10  H    0.076555
    11  H    0.085621
    12  H   -0.062356
    13  H    0.074706
    14  H    0.096006
    15  H    0.053914
    16  H    0.110726
    17  H    0.255373
    18  H    0.248868
 Sum of Mulliken charges =  -0.00000

 Dipole moment (field-independent basis, Debye):
    X=              0.4830    Y=             -2.5649    Z=             -1.2923  Tot=              2.9124
 Quadrupole moment (field-independent basis, Debye-Ang):
   XX=            -48.5068   YY=            -41.2629   ZZ=            -42.0079
   XY=              4.1609   XZ=             -1.0866   YZ=             -1.4681

 Summary of Natural Population Analysis:

                                       Natural Population
                Natural  -----------------------------------------------
    Atom  No    Charge         Core      Valence    Rydberg      Total
 -----------------------------------------------------------------------
      C    1   -0.71507      1.99946     4.70418    0.01143     6.71507
      C    2   -0.34794      1.99936     4.32939    0.01919     6.34794
      N    3   -0.22298      1.99932     5.20391    0.01975     7.22298
      C    4   -0.37667      1.99931     4.35380    0.02356     6.37667
      C    5   -0.28926      1.99935     4.27004    0.01987     6.28926
      N    6   -0.91225      1.99970     5.89686    0.01569     7.91225
      H    7    0.21998      0.00000     0.77073    0.00929     0.78002
      H    8    0.19732      0.00000     0.77923    0.02345     0.80268
      H    9    0.23251      0.00000     0.76111    0.00637     0.76749
      H   10    0.21943      0.00000     0.74141    0.03915     0.78057
      H   11    0.21846      0.00000     0.75670    0.02484     0.78154
      H   12    0.14642      0.00000     0.75166    0.10193     0.85358
      H   13    0.21685      0.00000     0.74435    0.03880     0.78315
      H   14    0.22432      0.00000     0.75602    0.01966     0.77568
      H   15    0.19082      0.00000     0.78421    0.02497     0.80918
      H   16    0.23066      0.00000     0.76349    0.00585     0.76934
      H   17    0.38710      0.00000     0.60965    0.00325     0.61290
      H   18    0.38030      0.00000     0.61401    0.00569     0.61970
 =======================================================================
   * Total *    0.00000     11.99651    37.59075    0.41274    50.00000

 1\1\GINC-CN11\SP\RB3LYP TD-FC\6-31G(d,p)\C4H12N2\QDUEZ\11-Jul-2024\0\\
 # TD(NStates=10, Root=1) B3LYP/6-31G** SCRF=(Solvent=water) volume pop
 =NPA density=current Geom=AllCheck Guess=Read\\SCZVXVGZMZRGRU-UHFFFAOY
 SA-N_conf_0\\0,1\C,0,-2.9241176374,0.0677147556,0.6100069815\C,0,-1.61
 8166667,-0.5129299409,0.0740227451\N,0,-0.4616478207,0.2410846962,0.56
 50402123\C,0,0.8109181003,-0.2447970038,0.0324447426\C,0,1.9912627309,
 0.5725669668,0.5726246393\N,0,3.3161317991,0.147493729,0.1052835043\H,
 0,-3.7808679861,-0.5188384883,0.2643056597\H,0,-3.066751703,1.09895603

 Normal termination of Gaussian 16 at Thu Jul 11 18:47:00 2024.
