 Gaussian 16, Revision A.03,

 -------------------------------------------------------
 # opt=CalcFc B3LYP/6-31G** SCRF=(Solvent=water) scf=xqc
 -------------------------------------------------------

 ----------------------------------
 NIQFAJBKEHPUAM-UHFFFAOYSA-N_conf_2
 ----------------------------------
 Symbolic Z-matrix:
 Charge =  0 Multiplicity = 1

 SCF Done:  E(RB3LYP) =  -652.038236618     A.U. after   11 cycles
 SCF Done:  E(RB3LYP) =  -652.032495200     A.U. after   12 cycles
 SCF Done:  E(RB3LYP) =  -652.041858787     A.U. after   10 cycles
 SCF Done:  E(RB3LYP) =  -652.041454319     A.U. after   10 cycles
 SCF Done:  E(RB3LYP) =  -652.042411539     A.U. after   10 cycles
 SCF Done:  E(RB3LYP) =  -652.042117531     A.U. after   12 cycles
 SCF Done:  E(RB3LYP) =  -652.042673271     A.U. after   10 cycles
 SCF Done:  E(RB3LYP) =  -652.042719100     A.U. after    9 cycles
 SCF Done:  E(RB3LYP) =  -652.042726240     A.U. after    8 cycles
 SCF Done:  E(RB3LYP) =  -652.042734836     A.U. after    9 cycles
 SCF Done:  E(RB3LYP) =  -652.042737689     A.U. after    7 cycles
 SCF Done:  E(RB3LYP) =  -652.042742345     A.U. after    8 cycles
 SCF Done:  E(RB3LYP) =  -652.042748097     A.U. after    8 cycles
 SCF Done:  E(RB3LYP) =  -652.042760433     A.U. after    8 cycles
 SCF Done:  E(RB3LYP) =  -652.042770746     A.U. after    8 cycles
 SCF Done:  E(RB3LYP) =  -652.042779743     A.U. after    8 cycles
 SCF Done:  E(RB3LYP) =  -652.042780256     A.U. after    8 cycles
 SCF Done:  E(RB3LYP) =  -652.042780314     A.U. after    7 cycles
 Optimization completed.
    -- Stationary point found.
 Normal termination of Gaussian 16 at Thu Jul 18 15:26:45 2024.

 ----------------------------------------------------------------------
 # freq B3LYP/6-31G** SCRF=(Solvent=water) volume NMR pop=NPA density=c
 urrent Geom=AllCheck Guess=Read
 ----------------------------------------------------------------------

 Structure from the checkpoint file:  "NIQFAJBKEHPUAM-UHFFFAOYSA-N_conf_2_1.chk"
 ----------------------------------
 NIQFAJBKEHPUAM-UHFFFAOYSA-N_conf_2
 ----------------------------------
 Charge =  0 Multiplicity = 1

 SCF Done:  E(RB3LYP) =  -652.042780314     A.U. after    1 cycles

      1  N    Isotropic =   234.3410   Anisotropy =    30.7760

      2  C    Isotropic =   143.5581   Anisotropy =    19.2959

      3  C    Isotropic =   118.0158   Anisotropy =    65.6786

      4  O    Isotropic =   294.2232   Anisotropy =    31.1690

      5  C    Isotropic =   120.0879   Anisotropy =    69.4980

      6  C    Isotropic =   120.4183   Anisotropy =    53.8407

      7  O    Isotropic =   316.3114   Anisotropy =    24.8292

      8  C    Isotropic =   127.0990   Anisotropy =    70.7661

      9  C    Isotropic =   125.1684   Anisotropy =    76.8590

     10  O    Isotropic =   301.2057   Anisotropy =    40.8797

     11  C    Isotropic =   117.2587   Anisotropy =    75.3387

     12  C    Isotropic =   150.4930   Anisotropy =    38.0961

     13  N    Isotropic =   244.8719   Anisotropy =    25.0539

     14  H    Isotropic =    30.9586   Anisotropy =    14.9677

     15  H    Isotropic =    31.5683   Anisotropy =    12.6290

     16  H    Isotropic =    28.8431   Anisotropy =     8.9806

     17  H    Isotropic =    29.0333   Anisotropy =     6.3287

     18  H    Isotropic =    27.8892   Anisotropy =     7.7233

     19  H    Isotropic =    28.3973   Anisotropy =     6.9286

     20  H    Isotropic =    27.3871   Anisotropy =     7.5032

     21  H    Isotropic =    28.7317   Anisotropy =     4.1956

     22  H    Isotropic =    28.4944   Anisotropy =     4.8105

     23  H    Isotropic =    27.1644   Anisotropy =    10.3500

     24  H    Isotropic =    28.1562   Anisotropy =     6.1202

     25  H    Isotropic =    28.2670   Anisotropy =     5.5284

     26  H    Isotropic =    28.0508   Anisotropy =     5.6422

     27  H    Isotropic =    28.4552   Anisotropy =     6.3886

     28  H    Isotropic =    28.2169   Anisotropy =     6.0897

     29  H    Isotropic =    28.6267   Anisotropy =     4.9170

     30  H    Isotropic =    28.7693   Anisotropy =     6.2363

     31  H    Isotropic =    29.3416   Anisotropy =     5.7503

     32  H    Isotropic =    31.6328   Anisotropy =    13.8802

     33  H    Isotropic =    31.5864   Anisotropy =    14.0988

  Exact polarizability: 163.501  -2.591 130.397   4.493   2.912 127.248
 Approx polarizability: 157.512  -3.814 143.545   3.782   3.481 142.886

                      1                      2                      3
                      A                      A                      A
 Frequencies --     20.8987                29.6013                35.3027
 Red. masses --      4.3691                 3.9497                 3.2498
 Frc consts  --      0.0011                 0.0020                 0.0024
 IR Inten    --      0.1921                 0.9020                 2.8861

                      4                      5                      6
                      A                      A                      A
 Frequencies --     49.2632                66.8350                74.7831
 Red. masses --      3.6836                 2.7179                 3.6778
 Frc consts  --      0.0053                 0.0072                 0.0121
 IR Inten    --      1.5297                 7.2229                 0.6286

                      7                      8                      9
                      A                      A                      A
 Frequencies --     85.4314               119.0587               125.1560
 Red. masses --      2.1872                 2.7448                 2.8910
 Frc consts  --      0.0094                 0.0229                 0.0267
 IR Inten    --      1.1127                 3.1923                 1.5618

                     10                     11                     12
                      A                      A                      A
 Frequencies --    149.0457               220.5641               233.4109
 Red. masses --      2.9461                 2.9306                 2.7049
 Frc consts  --      0.0386                 0.0840                 0.0868
 IR Inten    --      8.0495                12.4390                17.2611

                     13                     14                     15
                      A                      A                      A
 Frequencies --    246.9778               281.7022               304.1935
 Red. masses --      1.3420                 3.3772                 1.1686
 Frc consts  --      0.0482                 0.1579                 0.0637
 IR Inten    --     33.2924                20.1873                65.1264

                     16                     17                     18
                      A                      A                      A
 Frequencies --    314.0644               344.4083               401.6108
 Red. masses --      2.2757                 3.4241                 2.2798
 Frc consts  --      0.1323                 0.2393                 0.2167
 IR Inten    --     15.3954                 1.0498                 4.7762

                     19                     20                     21
                      A                      A                      A
 Frequencies --    424.2037               472.8428               497.7570
 Red. masses --      2.7247                 2.7906                 2.6569
 Frc consts  --      0.2889                 0.3676                 0.3879
 IR Inten    --      1.1372                 4.8330                56.3931

                     22                     23                     24
                      A                      A                      A
 Frequencies --    515.2183               544.2726               780.1686
 Red. masses --      1.8036                 4.3110                 1.1150
 Frc consts  --      0.2821                 0.7524                 0.3998
 IR Inten    --      9.0408                 9.7292                 1.7498

                     25                     26                     27
                      A                      A                      A
 Frequencies --    792.8608               812.3523               843.9343
 Red. masses --      2.3458                 1.1890                 1.6603
 Frc consts  --      0.8688                 0.4623                 0.6967
 IR Inten    --     23.4564                 3.6133                84.7808

                     28                     29                     30
                      A                      A                      A
 Frequencies --    864.4089               886.7895               897.7971
 Red. masses --      2.2827                 2.5264                 1.6324
 Frc consts  --      1.0049                 1.1706                 0.7752
 IR Inten    --     51.8726                18.7456               243.6661

                     31                     32                     33
                      A                      A                      A
 Frequencies --    961.6952               978.1625              1007.7052
 Red. masses --      1.9084                 2.6631                 1.7059
 Frc consts  --      1.0399                 1.5013                 1.0207
 IR Inten    --     94.1147                48.3177                 6.2720

                     34                     35                     36
                      A                      A                      A
 Frequencies --   1012.4024              1021.2395              1047.2528
 Red. masses --      1.4739                 1.9550                 2.2630
 Frc consts  --      0.8901                 1.2013                 1.4623
 IR Inten    --      9.6969                53.1540                56.8353

                     37                     38                     39
                      A                      A                      A
 Frequencies --   1048.4458              1073.8886              1097.6420
 Red. masses --      3.2669                 3.2297                 2.7880
 Frc consts  --      2.1158                 2.1945                 1.9791
 IR Inten    --     19.3403                 9.6597               195.3742

                     40                     41                     42
                      A                      A                      A
 Frequencies --   1104.3716              1109.9512              1118.6648
 Red. masses --      2.5086                 2.8011                 2.7554
 Frc consts  --      1.8027                 2.0332                 2.0316
 IR Inten    --     11.5992                 7.0961               218.3618

                     43                     44                     45
                      A                      A                      A
 Frequencies --   1136.5384              1168.3490              1183.3979
 Red. masses --      6.1581                 4.1178                 1.7533
 Frc consts  --      4.6866                 3.3118                 1.4466
 IR Inten    --    252.4407                42.4840                35.7285

                     46                     47                     48
                      A                      A                      A
 Frequencies --   1223.1504              1240.6104              1260.1265
 Red. masses --      1.4524                 1.5174                 1.2412
 Frc consts  --      1.2802                 1.3760                 1.1612
 IR Inten    --      9.1687                 9.3010                68.1508

                     49                     50                     51
                      A                      A                      A
 Frequencies --   1300.6610              1312.3436              1325.1669
 Red. masses --      1.2271                 1.1389                 1.1250
 Frc consts  --      1.2231                 1.1557                 1.1640
 IR Inten    --     56.4283                 7.0761                24.1564

                     52                     53                     54
                      A                      A                      A
 Frequencies --   1329.6234              1337.1641              1349.2437
 Red. masses --      1.1428                 1.1781                 1.1781
 Frc consts  --      1.1903                 1.2411                 1.2636
 IR Inten    --     18.2963                 4.6773                17.3908

                     55                     56                     57
                      A                      A                      A
 Frequencies --   1350.2220              1361.4761              1391.8700
 Red. masses --      1.1773                 1.2191                 1.2020
 Frc consts  --      1.2646                 1.3314                 1.3720
 IR Inten    --     17.1104                24.5589                 0.3919

                     58                     59                     60
                      A                      A                      A
 Frequencies --   1396.8596              1418.2191              1425.5248
 Red. masses --      1.2233                 1.2655                 1.3122
 Frc consts  --      1.4063                 1.4997                 1.5711
 IR Inten    --     21.6439                14.1648                 5.5591

                     61                     62                     63
                      A                      A                      A
 Frequencies --   1429.3137              1435.1795              1447.4612
 Red. masses --      1.3524                 1.4359                 1.4039
 Frc consts  --      1.6279                 1.7426                 1.7330
 IR Inten    --     16.7779                 7.5245                 2.5092

                     64                     65                     66
                      A                      A                      A
 Frequencies --   1487.5586              1492.0784              1496.9377
 Red. masses --      1.0796                 1.0895                 1.0865
 Frc consts  --      1.4075                 1.4291                 1.4344
 IR Inten    --      1.2842                 1.2059                 5.3160

                     67                     68                     69
                      A                      A                      A
 Frequencies --   1500.7569              1505.0272              1510.9183
 Red. masses --      1.0972                 1.1026                 1.0885
 Frc consts  --      1.4560                 1.4716                 1.4641
 IR Inten    --     10.9277                 1.2545                 0.7859

                     70                     71                     72
                      A                      A                      A
 Frequencies --   1518.0850              1536.0781              1656.6320
 Red. masses --      1.0896                 1.0873                 1.0878
 Frc consts  --      1.4795                 1.5116                 1.7590
 IR Inten    --      2.7767                 6.8792                40.8354

                     73                     74                     75
                      A                      A                      A
 Frequencies --   1661.0535              2956.5354              2985.0672
 Red. masses --      1.0887                 1.0720                 1.0625
 Frc consts  --      1.7698                 5.5211                 5.5781
 IR Inten    --     33.1225               118.9756                52.0011

                     76                     77                     78
                      A                      A                      A
 Frequencies --   2990.5451              2995.4066              3006.8881
 Red. masses --      1.0627                 1.0663                 1.0654
 Frc consts  --      5.5995                 5.6371                 5.6756
 IR Inten    --     84.8127                81.8750                79.7221

                     79                     80                     81
                      A                      A                      A
 Frequencies --   3014.4040              3028.3539              3034.4902
 Red. masses --      1.0645                 1.0818                 1.0798
 Frc consts  --      5.6993                 5.8452                 5.8582
 IR Inten    --     76.2978                26.5736                92.7503

                     82                     83                     84
                      A                      A                      A
 Frequencies --   3047.3414              3065.8417              3067.8702
 Red. masses --      1.0612                 1.0965                 1.0934
 Frc consts  --      5.8061                 6.0725                 6.0631
 IR Inten    --     78.6287                26.3765                51.7460

                     85                     86                     87
                      A                      A                      A
 Frequencies --   3070.2889              3077.8217              3089.7081
 Red. masses --      1.1009                 1.0937                 1.1048
 Frc consts  --      6.1146                 6.1044                 6.2139
 IR Inten    --     56.6965                84.0391                86.2886

                     88                     89                     90
                      A                      A                      A
 Frequencies --   3095.0180              3123.8501              3475.5374
 Red. masses --      1.1071                 1.0965                 1.0499
 Frc consts  --      6.2485                 6.3041                 7.4721
 IR Inten    --     90.7725                24.1909                 0.6409

                     91                     92                     93
                      A                      A                      A
 Frequencies --   3483.6935              3554.9294              3564.1591
 Red. masses --      1.0510                 1.0921                 1.0916
 Frc consts  --      7.5153                 8.1318                 8.1704
 IR Inten    --      0.4281                 0.0101                 0.4931

 - Thermochemistry -
 -------------------
 Temperature   298.150 Kelvin.  Pressure   1.00000 Atm.
 Atom     1 has atomic number  7 and mass  14.00307

 Molecular mass:   192.14739 amu.
 Principal axes and moments of inertia in atomic units:
                           1         2         3
     Eigenvalues --   735.892969636.174909976.15624
           X            1.00000  -0.00128  -0.00000
           Y            0.00128   1.00000  -0.00126
           Z            0.00001   0.00126   1.00000
 This molecule is an asymmetric top.
 Rotational symmetry number  1.
 Warning -- assumption of classical behavior for rotation
           may cause significant error
 Rotational temperatures (Kelvin)      0.11770     0.00899     0.00868
 Rotational constants (GHZ):           2.45245     0.18729     0.18091
 Zero-point vibrational energy     777164.2 (Joules/Mol)
                                  185.74671 (Kcal/Mol)
 Warning -- explicit consideration of  23 degrees of freedom as
           vibrations may cause significant error
 Vibrational temperatures:     30.07    42.59    50.79    70.88    96.16
          (Kelvin)            107.60   122.92   171.30   180.07   214.44
                              317.34   335.83   355.35   405.31   437.67
                              451.87   495.53   577.83   610.33   680.32
                              716.16   741.28   783.09  1122.49  1140.75
                             1168.79  1214.23  1243.69  1275.89  1291.73
                             1383.66  1407.36  1449.86  1456.62  1469.34
                             1506.76  1508.48  1545.09  1579.26  1588.94
                             1596.97  1609.51  1635.23  1680.99  1702.65
                             1759.84  1784.96  1813.04  1871.36  1888.17
                             1906.62  1913.03  1923.88  1941.26  1942.67
                             1958.86  2002.59  2009.77  2040.50  2051.01
                             2056.46  2064.90  2082.57  2140.26  2146.77
                             2153.76  2159.25  2165.40  2173.87  2184.19
                             2210.07  2383.52  2389.89  4253.80  4294.85
                             4302.73  4309.72  4326.24  4337.06  4357.13
                             4365.95  4384.44  4411.06  4413.98  4417.46
                             4428.30  4445.40  4453.04  4494.52  5000.52
                             5012.26  5114.75  5128.03

 Zero-point correction=                           0.296006 (Hartree/Particle)
 Thermal correction to Energy=                    0.312449
 Thermal correction to Enthalpy=                  0.313394
 Thermal correction to Gibbs Free Energy=         0.248695
 Sum of electronic and zero-point Energies=           -651.746774
 Sum of electronic and thermal Energies=              -651.730331
 Sum of electronic and thermal Enthalpies=            -651.729387
 Sum of electronic and thermal Free Energies=         -651.794085

                     E (Thermal)             CV                S
                      KCal/Mol        Cal/Mol-Kelvin    Cal/Mol-Kelvin
 Total                  196.065             57.097            136.170
 Electronic               0.000              0.000              0.000
 Translational            0.889              2.981             41.665
 Rotational               0.889              2.981             32.625
 Vibrational            194.288             51.136             61.880
 Vibration     1          0.593              1.986              6.547
 Vibration     2          0.593              1.984              5.856
 Vibration     3          0.594              1.982              5.507
 Vibration     4          0.595              1.978              4.847
 Vibration     5          0.598              1.970              4.244
 Vibration     6          0.599              1.966              4.023
 Vibration     7          0.601              1.959              3.762
 Vibration     8          0.609              1.933              3.116
 Vibration     9          0.610              1.928              3.019
 Vibration    10          0.618              1.904              2.684
 Vibration    11          0.647              1.810              1.954
 Vibration    12          0.654              1.790              1.853
 Vibration    13          0.661              1.768              1.752
 Vibration    14          0.681              1.708              1.523
 Vibration    15          0.695              1.666              1.394
 Vibration    16          0.702              1.647              1.341
 Vibration    17          0.723              1.587              1.192
 Vibration    18          0.767              1.467              0.957
 Vibration    19          0.786              1.418              0.878
 Vibration    20          0.830              1.310              0.730
 Vibration    21          0.853              1.255              0.664
 Vibration    22          0.870              1.216              0.621
 Vibration    23          0.899              1.152              0.556

                           ! Non-Optimized Parameters !
 Normal termination of Gaussian 16 at Thu Jul 18 15:38:48 2024.
 Gaussian 16:  ES64L-G16RevA.03 25-Dec-2016

 ----------------------------------------------------------------------
 # TD(NStates=10, Root=1) B3LYP/6-31G** SCRF=(Solvent=water) volume pop
 =NPA density=current Geom=AllCheck Guess=Read
 ----------------------------------------------------------------------

 Structure from the checkpoint file:  "NIQFAJBKEHPUAM-UHFFFAOYSA-N_conf_2_2.chk"
 ----------------------------------
 NIQFAJBKEHPUAM-UHFFFAOYSA-N_conf_2
 ----------------------------------
 Charge =  0 Multiplicity = 1

                         Standard orientation:
 ---------------------------------------------------------------------
 Center     Atomic      Atomic             Coordinates (Angstroms)
 Number     Number       Type             X           Y           Z
 ---------------------------------------------------------------------
      1          7           0       -4.337191    1.761605    0.353337
      2          6           0       -4.910241    0.737510   -0.529373
      3          6           0       -4.561828   -0.680974   -0.079546
      4          8           0       -3.199161   -1.046099   -0.264068
      5          6           0       -2.294487   -0.722251    0.789724
      6          6           0       -1.259169    0.305040    0.350566
      7          8           0       -0.444868   -0.154478   -0.731586
      8          6           0        0.684607   -0.927491   -0.346345
      9          6           0        1.903032   -0.035242   -0.112905
     10          8           0        2.991729   -0.883861    0.224285
     11          6           0        4.172695   -0.201165    0.635350
     12          6           0        4.992439    0.371633   -0.530673
     13          7           0        6.251366    1.007751   -0.126441
     14          1           0       -4.524026    2.682950   -0.036190
     15          1           0       -4.822220    1.741292    1.249082
     16          1           0       -6.009779    0.792425   -0.615391
     17          1           0       -4.505061    0.885922   -1.536753
     18          1           0       -5.146009   -1.384883   -0.684004
     19          1           0       -4.860592   -0.826258    0.970525
     20          1           0       -1.794533   -1.651519    1.098272
     21          1           0       -2.829059   -0.327920    1.662396
     22          1           0       -0.641897    0.587231    1.216365
     23          1           0       -1.782965    1.196799   -0.001532
     24          1           0        0.897515   -1.624870   -1.163657
     25          1           0        0.486647   -1.524393    0.553878
     26          1           0        2.101739    0.548093   -1.023116
     27          1           0        1.705569    0.678835    0.702262
     28          1           0        4.777830   -0.942374    1.170936
     29          1           0        3.922474    0.601955    1.347417
     30          1           0        4.398458    1.110916   -1.079645
     31          1           0        5.216900   -0.439832   -1.232833
     32          1           0        6.052077    1.764506    0.526178
     33          1           0        6.813818    0.338779    0.397708
 ---------------------------------------------------------------------

 SCF Done:  E(RB3LYP) =  -652.042780314     A.U. after    1 cycles

 Excitation energies and oscillator strengths:

 Excited State   1:      Singlet-A      7.2806 eV  170.29 nm  f=0.0144  <S**2>=0.000
      53 -> 54         0.22970
      53 -> 55         0.63732
      53 -> 56        -0.11330
 This state for optimization and/or second-order correction.
 Total Energy, E(TD-HF/TD-DFT) =  -651.775222485
 Copying the excited state density for this state as the 1-particle RhoCI density.

 Excited State   2:      Singlet-A      7.3337 eV  169.06 nm  f=0.0181  <S**2>=0.000
      51 -> 54         0.24473
      51 -> 55        -0.10810
      51 -> 57        -0.11042
      52 -> 54         0.56484
      52 -> 55        -0.20515
      52 -> 56        -0.11111
      52 -> 57        -0.14579

 Excited State   3:      Singlet-A      7.6767 eV  161.51 nm  f=0.0067  <S**2>=0.000
      51 -> 54        -0.29008
      52 -> 54         0.13446
      52 -> 57         0.11511
      53 -> 54         0.24363
      53 -> 56         0.53606

 Excited State   4:      Singlet-A      7.7147 eV  160.71 nm  f=0.0268  <S**2>=0.000
      51 -> 54         0.44710
      52 -> 54        -0.26579
      52 -> 56        -0.17823
      52 -> 57        -0.14123
      53 -> 56         0.34070
      53 -> 57        -0.13004

 Excited State   5:      Singlet-A      7.9974 eV  155.03 nm  f=0.0127  <S**2>=0.000
      52 -> 54        -0.12697
      53 -> 54         0.52870
      53 -> 55        -0.19304
      53 -> 56        -0.12256
      53 -> 57         0.34342

 Excited State   6:      Singlet-A      8.0441 eV  154.13 nm  f=0.0136  <S**2>=0.000
      50 -> 54         0.17251
      51 -> 54        -0.19882
      51 -> 55         0.30768
      51 -> 56         0.31972
      51 -> 57         0.10259
      52 -> 55        -0.30801
      52 -> 56        -0.29747

 Excited State   7:      Singlet-A      8.1301 eV  152.50 nm  f=0.0002  <S**2>=0.000
      50 -> 54         0.14725
      51 -> 54         0.25805
      51 -> 55         0.15077
      51 -> 56         0.25632
      51 -> 57         0.19627
      52 -> 54         0.16881
      52 -> 55         0.17388
      52 -> 56         0.19371
      52 -> 57         0.28169
      52 -> 58         0.27671

 Excited State   8:      Singlet-A      8.2429 eV  150.41 nm  f=0.0637  <S**2>=0.000
      50 -> 54        -0.13543
      51 -> 54         0.10332
      51 -> 57        -0.37996
      52 -> 55        -0.22526
      52 -> 57         0.43622
      53 -> 57         0.13751

 Excited State   9:      Singlet-A      8.3171 eV  149.07 nm  f=0.0019  <S**2>=0.000
      51 -> 56         0.20571
      51 -> 57        -0.13808
      52 -> 54         0.12574
      52 -> 55         0.48876
      52 -> 56        -0.35784
      52 -> 58        -0.15827

 Excited State  10:      Singlet-A      8.3528 eV  148.43 nm  f=0.0169  <S**2>=0.000
      49 -> 55        -0.11622
      52 -> 57        -0.14199
      53 -> 54        -0.28163
      53 -> 55         0.18335
      53 -> 56         0.15189
      53 -> 57         0.49427
      53 -> 59        -0.20797

 The electronic state is 1-A.
 Alpha  occ. eigenvalues --  -19.15057 -19.14765 -19.14209 -14.31550 -14.31355
 Alpha  occ. eigenvalues --  -10.22912 -10.22794 -10.22739 -10.22677 -10.22462
 Alpha  occ. eigenvalues --  -10.22234 -10.20447 -10.20423  -1.03431  -1.02703
 Alpha  occ. eigenvalues --   -1.01557  -0.87913  -0.87619  -0.77028  -0.74532
 Alpha  occ. eigenvalues --   -0.71031  -0.68752  -0.63785  -0.60761  -0.59592
 Alpha  occ. eigenvalues --   -0.57673  -0.50734  -0.50318  -0.49923  -0.48833
 Alpha  occ. eigenvalues --   -0.48082  -0.46519  -0.45610  -0.45494  -0.44779
 Alpha  occ. eigenvalues --   -0.43014  -0.42719  -0.40901  -0.40242  -0.38857
 Alpha  occ. eigenvalues --   -0.38325  -0.36859  -0.35688  -0.35404  -0.34827
 Alpha  occ. eigenvalues --   -0.31644  -0.31596  -0.30270  -0.27310  -0.26948
 Alpha  occ. eigenvalues --   -0.24238  -0.23355  -0.23112
 Alpha virt. eigenvalues --    0.07887   0.08272   0.09056   0.09734   0.11394
 Alpha virt. eigenvalues --    0.11922   0.13322   0.13352   0.13526   0.14270
 Alpha virt. eigenvalues --    0.15527   0.15795   0.16391   0.16716   0.17463

 Mulliken charges:
               1
     1  N   -0.624551
     2  C   -0.057575
     3  C    0.053115
     4  O   -0.511544
     5  C    0.066937
     6  C    0.034360
     7  O   -0.509522
     8  C    0.025564
     9  C    0.029653
    10  O   -0.431536
    11  C    0.028919
    12  C   -0.148887
    13  N   -0.087805
    14  H    0.257345
    15  H    0.253365
    16  H    0.086135
    17  H    0.109955
    18  H    0.103278
    19  H    0.094038
    20  H    0.094852
    21  H    0.097712
    22  H    0.089317
    23  H    0.120626
    24  H    0.115325
    25  H    0.107028
    26  H    0.122381
    27  H    0.112326
    28  H    0.100133
    29  H    0.107515
    30  H    0.121869
    31  H    0.119984
    32  H   -0.034188
    33  H   -0.046123
 Sum of Mulliken charges =  -0.00000

 Dipole moment (field-independent basis, Debye):
    X=             -4.4642    Y=              1.8516    Z=              1.9965  Tot=              5.2291
 Quadrupole moment (field-independent basis, Debye-Ang):
   XX=            -78.6934   YY=            -82.6210   ZZ=            -80.9807
   XY=             -9.0318   XZ=             -8.8566   YZ=             -1.2779

 Summary of Natural Population Analysis:

                                       Natural Population
                Natural  -----------------------------------------------
    Atom  No    Charge         Core      Valence    Rydberg      Total
 -----------------------------------------------------------------------
      N    1   -0.93571      1.99967     5.92051    0.01553     7.93571
      C    2   -0.29410      1.99935     4.28151    0.01325     6.29410
      C    3   -0.11665      1.99925     4.09820    0.01920     6.11665
      O    4   -0.60636      1.99979     6.59358    0.01299     8.60636
      C    5   -0.13396      1.99924     4.11635    0.01837     6.13396
      C    6   -0.14159      1.99922     4.12324    0.01913     6.14159
      O    7   -0.60231      1.99981     6.58967    0.01283     8.60231
      C    8   -0.13204      1.99927     4.11197    0.02080     6.13204
      C    9   -0.15207      1.99927     4.13480    0.01799     6.15207
      O   10   -0.51159      1.99980     6.49735    0.01444     8.51159
      C   11   -0.16828      1.99917     4.13875    0.03036     6.16828
      C   12   -0.39996      1.99938     4.37449    0.02608     6.39996
      N   13   -0.50723      1.99942     5.47891    0.02889     7.50723
      H   14    0.39588      0.00000     0.60157    0.00255     0.60412
      H   15    0.38780      0.00000     0.60923    0.00297     0.61220
      H   16    0.21119      0.00000     0.78579    0.00302     0.78881
      H   17    0.23198      0.00000     0.76533    0.00269     0.76802
      H   18    0.22901      0.00000     0.76912    0.00187     0.77099
      H   19    0.20363      0.00000     0.79365    0.00272     0.79637
      H   20    0.21213      0.00000     0.78565    0.00222     0.78787
      H   21    0.21847      0.00000     0.77875    0.00278     0.78153
      H   22    0.20685      0.00000     0.79054    0.00261     0.79315
      H   23    0.24230      0.00000     0.75456    0.00315     0.75770
      H   24    0.23024      0.00000     0.76741    0.00235     0.76976
      H   25    0.21081      0.00000     0.78628    0.00292     0.78919
      H   26    0.22409      0.00000     0.77291    0.00300     0.77591
      H   27    0.21398      0.00000     0.78339    0.00263     0.78602
      H   28    0.22657      0.00000     0.75623    0.01720     0.77343
      H   29    0.21883      0.00000     0.76967    0.01150     0.78117
      H   30    0.24143      0.00000     0.74602    0.01255     0.75857
      H   31    0.24097      0.00000     0.74380    0.01523     0.75903
      H   32    0.18255      0.00000     0.73575    0.08170     0.81745
      H   33    0.17314      0.00000     0.74330    0.08356     0.82686
 =======================================================================
   * Total *   -0.00000     25.99264    79.49828    0.50908   106.00000

 Normal termination of Gaussian 16 at Thu Jul 18 15:53:39 2024.
