 Gaussian 16, Revision A.03,

 -------------------------------------------------------
 # opt=CalcFc B3LYP/6-31G** SCRF=(Solvent=water) scf=xqc
 -------------------------------------------------------

 ----------------------------------
 NIQFAJBKEHPUAM-UHFFFAOYSA-N_conf_0
 ----------------------------------
 Symbolic Z-matrix:
 Charge =  0 Multiplicity = 1

 SCF Done:  E(RB3LYP) =  -652.038665277     A.U. after   11 cycles
 SCF Done:  E(RB3LYP) =  -652.042441836     A.U. after   10 cycles
 SCF Done:  E(RB3LYP) =  -652.042619176     A.U. after   11 cycles
 SCF Done:  E(RB3LYP) =  -652.042481752     A.U. after   10 cycles
 SCF Done:  E(RB3LYP) =  -652.042650809     A.U. after    9 cycles
 SCF Done:  E(RB3LYP) =  -652.042654556     A.U. after    8 cycles
 SCF Done:  E(RB3LYP) =  -652.042655478     A.U. after    8 cycles
 SCF Done:  E(RB3LYP) =  -652.042655025     A.U. after    9 cycles
 SCF Done:  E(RB3LYP) =  -652.042656266     A.U. after    8 cycles
 SCF Done:  E(RB3LYP) =  -652.042656566     A.U. after    7 cycles
 SCF Done:  E(RB3LYP) =  -652.042656576     A.U. after    6 cycles
 SCF Done:  E(RB3LYP) =  -652.042656456     A.U. after    7 cycles
 SCF Done:  E(RB3LYP) =  -652.042656529     A.U. after    7 cycles
 Optimization completed.
    -- Stationary point found.
 Normal termination of Gaussian 16 at Thu Jul 18 14:41:38 2024.

 ----------------------------------------------------------------------
 # freq B3LYP/6-31G** SCRF=(Solvent=water) volume NMR pop=NPA density=c
 urrent Geom=AllCheck Guess=Read
 ----------------------------------------------------------------------

 Structure from the checkpoint file:  "NIQFAJBKEHPUAM-UHFFFAOYSA-N_conf_0_1.chk"
 ----------------------------------
 NIQFAJBKEHPUAM-UHFFFAOYSA-N_conf_0
 ----------------------------------
 Charge =  0 Multiplicity = 1

 SCF Done:  E(RB3LYP) =  -652.042656529     A.U. after    1 cycles

      1  N    Isotropic =   242.3323   Anisotropy =    26.4784

      2  C    Isotropic =   149.7236   Anisotropy =    36.9625

      3  C    Isotropic =   119.5943   Anisotropy =    75.4261

      4  O    Isotropic =   302.6941   Anisotropy =    39.9468

      5  C    Isotropic =   123.8215   Anisotropy =    71.1994

      6  C    Isotropic =   123.3219   Anisotropy =    72.2618

      7  O    Isotropic =   312.6175   Anisotropy =    35.2909

      8  C    Isotropic =   124.3858   Anisotropy =    80.7265

      9  C    Isotropic =   127.0740   Anisotropy =    76.2688

     10  O    Isotropic =   315.4954   Anisotropy =    34.3127

     11  C    Isotropic =   121.5019   Anisotropy =    74.8703

     12  C    Isotropic =   148.8747   Anisotropy =    44.1005

     13  N    Isotropic =   242.7973   Anisotropy =    29.3889

     14  H    Isotropic =    31.6742   Anisotropy =    13.6936

     15  H    Isotropic =    31.0520   Anisotropy =    15.2917

     16  H    Isotropic =    28.9256   Anisotropy =     6.0614

     17  H    Isotropic =    28.7342   Anisotropy =     5.9035

     18  H    Isotropic =    28.1505   Anisotropy =     6.2806

     19  H    Isotropic =    28.3792   Anisotropy =     4.7051

     20  H    Isotropic =    28.5375   Anisotropy =     4.7187

     21  H    Isotropic =    27.9334   Anisotropy =     5.3603

     22  H    Isotropic =    28.4323   Anisotropy =     4.7785

     23  H    Isotropic =    27.9864   Anisotropy =     5.4084

     24  H    Isotropic =    28.1079   Anisotropy =     5.9224

     25  H    Isotropic =    28.3183   Anisotropy =     5.2073

     26  H    Isotropic =    28.0639   Anisotropy =     7.0250

     27  H    Isotropic =    28.2578   Anisotropy =     5.7845

     28  H    Isotropic =    28.5965   Anisotropy =     5.3615

     29  H    Isotropic =    28.1604   Anisotropy =     5.9037

     30  H    Isotropic =    28.6004   Anisotropy =     5.9474

     31  H    Isotropic =    29.2894   Anisotropy =     5.4532

     32  H    Isotropic =    31.7587   Anisotropy =    13.0465

     33  H    Isotropic =    31.1176   Anisotropy =    15.4840

  Exact polarizability: 157.523   1.835 133.519   2.330  -1.765 123.332
 Approx polarizability: 153.719   2.241 147.126   3.535  -4.736 135.632

                      1                      2                      3
                      A                      A                      A
 Frequencies --     14.1214                21.6697                41.9752
 Red. masses --      3.6689                 4.4213                 2.7159
 Frc consts  --      0.0004                 0.0012                 0.0028
 IR Inten    --      0.9224                 0.1514                 3.5683

                      4                      5                      6
                      A                      A                      A
 Frequencies --     52.5269                57.0506                82.4034
 Red. masses --      3.9026                 2.1532                 1.9344
 Frc consts  --      0.0063                 0.0041                 0.0077
 IR Inten    --      0.6044                 1.7972                 2.9782

                      7                      8                      9
                      A                      A                      A
 Frequencies --     86.1696                92.6611               117.2797
 Red. masses --      2.4378                 3.6650                 2.3378
 Frc consts  --      0.0107                 0.0185                 0.0189
 IR Inten    --      3.9448                 0.4608                 6.2835

                     10                     11                     12
                      A                      A                      A
 Frequencies --    138.0305               190.2476               230.8014
 Red. masses --      3.1955                 2.6057                 2.6807
 Frc consts  --      0.0359                 0.0556                 0.0841
 IR Inten    --      6.9073                13.5808                13.0716

                     13                     14                     15
                      A                      A                      A
 Frequencies --    242.5396               249.6780               276.3869
 Red. masses --      1.1238                 1.4016                 2.9820
 Frc consts  --      0.0389                 0.0515                 0.1342
 IR Inten    --     42.9679                52.5223                11.9375

                     16                     17                     18
                      A                      A                      A
 Frequencies --    291.1380               301.6383               339.8122
 Red. masses --      3.3811                 3.8786                 3.0248
 Frc consts  --      0.1689                 0.2079                 0.2058
 IR Inten    --     28.0486                48.1727                 6.5109

                     19                     20                     21
                      A                      A                      A
 Frequencies --    376.3372               429.2075               498.7132
 Red. masses --      3.9183                 3.1349                 3.4383
 Frc consts  --      0.3270                 0.3403                 0.5038
 IR Inten    --      2.4197                 3.3541                 7.8844

                     22                     23                     24
                      A                      A                      A
 Frequencies --    555.4389               570.9014               795.9903
 Red. masses --      5.7783                 3.6549                 1.1429
 Frc consts  --      1.0503                 0.7019                 0.4266
 IR Inten    --      3.9787                 8.8303                 3.2507

                     25                     26                     27
                      A                      A                      A
 Frequencies --    802.9106               803.6767               836.6435
 Red. masses --      1.1163                 1.1159                 1.1032
 Frc consts  --      0.4240                 0.4246                 0.4550
 IR Inten    --     20.7952                12.1671                 1.9309

                     28                     29                     30
                      A                      A                      A
 Frequencies --    885.6954               887.4013               949.0266
 Red. masses --      1.3731                 1.3248                 3.7014
 Frc consts  --      0.6346                 0.6146                 1.9641
 IR Inten    --    146.5251               253.5856                36.0702

                     31                     32                     33
                      A                      A                      A
 Frequencies --    960.0085               980.3590               986.5361
 Red. masses --      3.0996                 2.0927                 2.5657
 Frc consts  --      1.6831                 1.1850                 1.4712
 IR Inten    --     38.7146                 4.7341                37.0134

                     34                     35                     36
                      A                      A                      A
 Frequencies --   1019.7795              1046.2636              1073.7141
 Red. masses --      3.3805                 4.1927                 2.9226
 Frc consts  --      2.0713                 2.7041                 1.9851
 IR Inten    --      5.8886                 4.1834                43.6968

                     37                     38                     39
                      A                      A                      A
 Frequencies --   1074.9321              1086.5691              1110.3968
 Red. masses --      2.9474                 2.9814                 2.7990
 Frc consts  --      2.0066                 2.0739                 2.0334
 IR Inten    --     27.2257                 5.5839               221.0927

                     40                     41                     42
                      A                      A                      A
 Frequencies --   1130.5889              1133.5798              1145.2583
 Red. masses --      1.7515                 1.8929                 4.7848
 Frc consts  --      1.3191                 1.4331                 3.6976
 IR Inten    --     34.8960                42.8508               134.4461

                     43                     44                     45
                      A                      A                      A
 Frequencies --   1147.1247              1172.3430              1191.4633
 Red. masses --      4.4675                 1.6092                 2.1529
 Frc consts  --      3.4636                 1.3030                 1.8007
 IR Inten    --    257.2829                 2.9941               125.2322

                     46                     47                     48
                      A                      A                      A
 Frequencies --   1230.7622              1238.0951              1246.9310
 Red. masses --      1.3226                 1.4985                 1.4524
 Frc consts  --      1.1804                 1.3534                 1.3305
 IR Inten    --     20.5748                 4.9787                21.2026

                     49                     50                     51
                      A                      A                      A
 Frequencies --   1287.5713              1299.2767              1304.0880
 Red. masses --      1.2854                 1.2141                 1.1388
 Frc consts  --      1.2556                 1.2075                 1.1411
 IR Inten    --     17.4480                23.1963                 7.3241

                     52                     53                     54
                      A                      A                      A
 Frequencies --   1313.0395              1322.6499              1331.4586
 Red. masses --      1.2401                 1.0986                 1.0905
 Frc consts  --      1.2597                 1.1324                 1.1390
 IR Inten    --     21.9517                14.1713                 2.0381

                     55                     56                     57
                      A                      A                      A
 Frequencies --   1344.0450              1353.6582              1375.2688
 Red. masses --      1.0778                 1.2056                 1.2545
 Frc consts  --      1.1471                 1.3016                 1.3979
 IR Inten    --      0.2732                27.5593                15.2289

                     58                     59                     60
                      A                      A                      A
 Frequencies --   1387.6825              1393.2452              1434.0071
 Red. masses --      1.2606                 1.2678                 1.3420
 Frc consts  --      1.4303                 1.4499                 1.6260
 IR Inten    --     17.2949                 2.2676                 2.0006

                     61                     62                     63
                      A                      A                      A
 Frequencies --   1444.9202              1445.5085              1461.4318
 Red. masses --      1.4319                 1.4353                 1.4920
 Frc consts  --      1.7614                 1.7670                 1.8774
 IR Inten    --      0.3974                 3.2520                 0.1457

                     64                     65                     66
                      A                      A                      A
 Frequencies --   1495.7554              1500.6077              1507.9843
 Red. masses --      1.0871                 1.0885                 1.0882
 Frc consts  --      1.4330                 1.4441                 1.4579
 IR Inten    --      0.0485                 1.0207                 3.1583

                     67                     68                     69
                      A                      A                      A
 Frequencies --   1520.1065              1525.4008              1525.9818
 Red. masses --      1.0859                 1.0881                 1.0887
 Frc consts  --      1.4784                 1.4917                 1.4936
 IR Inten    --      4.0143                 2.0704                 1.5474

                     70                     71                     72
                      A                      A                      A
 Frequencies --   1530.7798              1545.2546              1658.3733
 Red. masses --      1.0873                 1.0860                 1.0875
 Frc consts  --      1.5012                 1.5278                 1.7622
 IR Inten    --      0.2696                10.0952                38.2127

                     73                     74                     75
                      A                      A                      A
 Frequencies --   1659.7614              2973.0772              2977.7184
 Red. masses --      1.0872                 1.0714                 1.0711
 Frc consts  --      1.7646                 5.5797                 5.5957
 IR Inten    --     34.9292                99.8466                86.7077

                     76                     77                     78
                      A                      A                      A
 Frequencies --   2994.1001              2997.5634              3006.6667
 Red. masses --      1.0577                 1.0556                 1.0656
 Frc consts  --      5.5863                 5.5884                 5.6756
 IR Inten    --      7.5045               107.1664                16.9732

                     79                     80                     81
                      A                      A                      A
 Frequencies --   3007.6962              3014.1814              3027.0660
 Red. masses --      1.0636                 1.0663                 1.0975
 Frc consts  --      5.6689                 5.7077                 5.9251
 IR Inten    --    138.4056               117.3691                 7.1850

                     82                     83                     84
                      A                      A                      A
 Frequencies --   3034.6348              3049.3760              3065.7759
 Red. masses --      1.0675                 1.1064                 1.0939
 Frc consts  --      5.7919                 6.0618                 6.0579
 IR Inten    --     29.9414               171.0338                 6.2230

                     85                     86                     87
                      A                      A                      A
 Frequencies --   3072.4910              3082.5138              3085.4245
 Red. masses --      1.0890                 1.0980                 1.0983
 Frc consts  --      6.0570                 6.1470                 6.1601
 IR Inten    --     31.0969                15.7369               117.6618

                     88                     89                     90
                      A                      A                      A
 Frequencies --   3093.3179              3101.1641              3486.7722
 Red. masses --      1.1001                 1.1057                 1.0514
 Frc consts  --      6.2019                 6.2650                 7.5309
 IR Inten    --     84.5943               116.8390                 0.6464

                     91                     92                     93
                      A                      A                      A
 Frequencies --   3486.9958              3565.7842              3566.6889
 Red. masses --      1.0514                 1.0913                 1.0914
 Frc consts  --      7.5321                 8.1755                 8.1798
 IR Inten    --      0.8326                 0.2255                 0.3425

 - Thermochemistry -
 -------------------
 Temperature   298.150 Kelvin.  Pressure   1.00000 Atm.
 Atom     1 has atomic number  7 and mass  14.00307

 Molecular mass:   192.14739 amu.
 Principal axes and moments of inertia in atomic units:
                           1         2         3
     Eigenvalues --   977.24513********************
           X            0.99998  -0.00528  -0.00154
           Y            0.00530   0.99989   0.01353
           Z            0.00147  -0.01354   0.99991
 This molecule is an asymmetric top.
 Rotational symmetry number  1.
 Warning -- assumption of classical behavior for rotation
           may cause significant error
 Rotational temperatures (Kelvin)      0.08863     0.00845     0.00791
 Rotational constants (GHZ):           1.84676     0.17604     0.16489
 Zero-point vibrational energy     776673.3 (Joules/Mol)
                                  185.62938 (Kcal/Mol)
 Warning -- explicit consideration of  23 degrees of freedom as
           vibrations may cause significant error
 Vibrational temperatures:     20.32    31.18    60.39    75.57    82.08
          (Kelvin)            118.56   123.98   133.32   168.74   198.60
                              273.72   332.07   348.96   359.23   397.66
                              418.88   433.99   488.91   541.47   617.53
                              717.54   799.15   821.40  1145.25  1155.21
                             1156.31  1203.74  1274.32  1276.77  1365.44
                             1381.24  1410.52  1419.41  1467.24  1505.34
                             1544.84  1546.59  1563.33  1597.61  1626.67
                             1630.97  1647.77  1650.46  1686.74  1714.25
                             1770.79  1781.34  1794.06  1852.53  1869.37
                             1876.29  1889.17  1903.00  1915.67  1933.78
                             1947.61  1978.71  1996.57  2004.57  2063.22
                             2078.92  2079.76  2102.67  2152.06  2159.04
                             2169.65  2187.09  2194.71  2195.55  2202.45
                             2223.28  2386.03  2388.03  4277.59  4284.27
                             4307.84  4312.83  4325.92  4327.40  4336.73
                             4355.27  4366.16  4387.37  4410.97  4420.63
                             4435.05  4439.24  4450.59  4461.88  5016.69
                             5017.01  5130.37  5131.67

 Zero-point correction=                           0.295819 (Hartree/Particle)
 Thermal correction to Energy=                    0.312647
 Thermal correction to Enthalpy=                  0.313592
 Thermal correction to Gibbs Free Energy=         0.247184
 Sum of electronic and zero-point Energies=           -651.746837
 Sum of electronic and thermal Energies=              -651.730009
 Sum of electronic and thermal Enthalpies=            -651.729065
 Sum of electronic and thermal Free Energies=         -651.795472

                     E (Thermal)             CV                S
                      KCal/Mol        Cal/Mol-Kelvin    Cal/Mol-Kelvin
 Total                  196.189             57.361            139.766
 Electronic               0.000              0.000              0.000
 Translational            0.889              2.981             41.665
 Rotational               0.889              2.981             33.061
 Vibrational            194.412             51.399             65.041
 Vibration     1          0.593              1.986              7.325
 Vibration     2          0.593              1.985              6.475
 Vibration     3          0.595              1.980              5.164
 Vibration     4          0.596              1.977              4.720
 Vibration     5          0.596              1.975              4.557
 Vibration     6          0.600              1.961              3.833
 Vibration     7          0.601              1.959              3.745
 Vibration     8          0.602              1.954              3.603
 Vibration     9          0.608              1.935              3.145
 Vibration    10          0.614              1.915              2.831
 Vibration    11          0.634              1.853              2.225
 Vibration    12          0.653              1.794              1.873
 Vibration    13          0.659              1.775              1.784
 Vibration    14          0.662              1.763              1.733
 Vibration    15          0.678              1.717              1.556
 Vibration    16          0.687              1.690              1.467
 Vibration    17          0.694              1.671              1.408
 Vibration    18          0.720              1.596              1.213
 Vibration    19          0.747              1.521              1.054
 Vibration    20          0.791              1.407              0.861
 Vibration    21          0.854              1.253              0.661
 Vibration    22          0.911              1.128              0.533
 Vibration    23          0.927              1.094              0.503

 Optimization completed.
    -- Stationary point found.
 Normal termination of Gaussian 16 at Thu Jul 18 14:53:35 2024.
 Gaussian 16:  ES64L-G16RevA.03 25-Dec-2016

 ----------------------------------------------------------------------
 # TD(NStates=10, Root=1) B3LYP/6-31G** SCRF=(Solvent=water) volume pop
 =NPA density=current Geom=AllCheck Guess=Read
 ----------------------------------------------------------------------

 Structure from the checkpoint file:  "NIQFAJBKEHPUAM-UHFFFAOYSA-N_conf_0_2.chk"
 ----------------------------------
 NIQFAJBKEHPUAM-UHFFFAOYSA-N_conf_0
 ----------------------------------
 Charge =  0 Multiplicity = 1

                         Standard orientation:
 ---------------------------------------------------------------------
 Center     Atomic      Atomic             Coordinates (Angstroms)
 Number     Number       Type             X           Y           Z
 ---------------------------------------------------------------------
      1          7           0        6.472827    0.435695    0.179041
      2          6           0        5.143503    0.173763   -0.388311
      3          6           0        4.091903    0.952451    0.407561
      4          8           0        2.776924    0.832042   -0.123938
      5          6           0        2.133062   -0.397896    0.171872
      6          6           0        0.684006   -0.266366   -0.274706
      7          8           0        0.044995   -1.506352   -0.002742
      8          6           0       -1.317510   -1.568875   -0.408972
      9          6           0       -2.264256   -0.980331    0.644468
     10          8           0       -3.620700   -1.146619    0.240796
     11          6           0       -4.172590   -0.047841   -0.484489
     12          6           0       -4.822694    0.975608    0.448200
     13          7           0       -5.414235    2.062626   -0.343219
     14          1           0        6.757123    1.384261   -0.060288
     15          1           0        7.154266   -0.170363   -0.271893
     16          1           0        5.041039    0.440232   -1.453068
     17          1           0        4.948410   -0.901219   -0.307866
     18          1           0        4.328723    2.022435    0.373768
     19          1           0        4.116212    0.637970    1.461558
     20          1           0        2.172719   -0.610031    1.251283
     21          1           0        2.599487   -1.244261   -0.352093
     22          1           0        0.645144   -0.036749   -1.350433
     23          1           0        0.210363    0.567566    0.262028
     24          1           0       -1.557450   -2.628200   -0.545509
     25          1           0       -1.459039   -1.065598   -1.376651
     26          1           0       -2.032947    0.075578    0.834852
     27          1           0       -2.133964   -1.522191    1.587236
     28          1           0       -3.405569    0.437418   -1.106011
     29          1           0       -4.930092   -0.457286   -1.160690
     30          1           0       -4.080729    1.312416    1.191244
     31          1           0       -5.622698    0.474812    1.004666
     32          1           0       -4.669290    2.652086   -0.711270
     33          1           0       -5.954155    2.667240    0.271711
 ---------------------------------------------------------------------

 SCF Done:  E(RB3LYP) =  -652.042656529     A.U. after    1 cycles

 Excitation energies and oscillator strengths:

 Excited State   1:      Singlet-A      7.3857 eV  167.87 nm  f=0.0108  <S**2>=0.000
      51 -> 55         0.19532
      51 -> 57         0.15162
      53 -> 54         0.39166
      53 -> 55         0.40712
      53 -> 56         0.24690
      53 -> 57         0.18648
 This state for optimization and/or second-order correction.
 Total Energy, E(TD-HF/TD-DFT) =  -651.771238547
 Copying the excited state density for this state as the 1-particle RhoCI density.

 Excited State   2:      Singlet-A      7.4171 eV  167.16 nm  f=0.0101  <S**2>=0.000
      52 -> 54         0.44905
      52 -> 55        -0.34952
      52 -> 56        -0.16563
      52 -> 57         0.36301

 Excited State   3:      Singlet-A      7.5649 eV  163.89 nm  f=0.0050  <S**2>=0.000
      51 -> 54         0.38257
      51 -> 56         0.13694
      53 -> 54        -0.35837
      53 -> 55         0.24679
      53 -> 56        -0.17157
      53 -> 57         0.25214
      53 -> 58        -0.14097

 Excited State   4:      Singlet-A      7.7247 eV  160.50 nm  f=0.0020  <S**2>=0.000
      51 -> 54         0.21195
      51 -> 55         0.14051
      51 -> 56        -0.10900
      53 -> 54        -0.14485
      53 -> 55        -0.27519
      53 -> 56         0.54831

 Excited State   5:      Singlet-A      7.8869 eV  157.20 nm  f=0.0118  <S**2>=0.000
      50 -> 54         0.40218
      52 -> 54        -0.35215
      52 -> 57         0.35418
      52 -> 58         0.18386

 Excited State   6:      Singlet-A      8.0768 eV  153.51 nm  f=0.0055  <S**2>=0.000
      50 -> 54         0.28201
      51 -> 54         0.21953
      51 -> 55        -0.27433
      51 -> 56         0.37773
      52 -> 54         0.15607
      52 -> 57        -0.17224
      52 -> 58        -0.12120
      53 -> 54         0.14778

 Excited State   7:      Singlet-A      8.0847 eV  153.36 nm  f=0.0217  <S**2>=0.000
      50 -> 54         0.38990
      50 -> 55        -0.10601
      51 -> 56        -0.37974
      52 -> 54         0.22530
      52 -> 57        -0.21924
      52 -> 58        -0.13094
      53 -> 54        -0.11319
      53 -> 55         0.14034

 Excited State   8:      Singlet-A      8.1358 eV  152.39 nm  f=0.0033  <S**2>=0.000
      51 -> 54         0.24490
      51 -> 55         0.43132
      51 -> 57         0.15416
      53 -> 54         0.19113
      53 -> 55        -0.24990
      53 -> 56        -0.24336
      53 -> 57        -0.17208

 Excited State   9:      Singlet-A      8.2284 eV  150.68 nm  f=0.0021  <S**2>=0.000
      49 -> 54        -0.22660
      51 -> 54        -0.31722
      51 -> 55         0.13879
      51 -> 56         0.32790
      51 -> 57         0.27893
      51 -> 58        -0.10154
      53 -> 54        -0.28623

 Excited State  10:      Singlet-A      8.3565 eV  148.37 nm  f=0.0081  <S**2>=0.000
      51 -> 54        -0.16113
      51 -> 57        -0.14945
      51 -> 58         0.19629
      53 -> 54         0.16882
      53 -> 55        -0.22270
      53 -> 57         0.36753
      53 -> 58        -0.36295

 The electronic state is 1-A.
 Alpha  occ. eigenvalues --  -19.15474 -19.15193 -19.15085 -14.31404 -14.31367
 Alpha  occ. eigenvalues --  -10.23224 -10.23117 -10.23037 -10.22979 -10.22779
 Alpha  occ. eigenvalues --  -10.22777 -10.20457 -10.20418  -1.03932  -1.03090
 Alpha  occ. eigenvalues --   -1.02533  -0.87794  -0.87749  -0.77611  -0.74557
 Alpha  occ. eigenvalues --   -0.71136  -0.68550  -0.63629  -0.61275  -0.59158
 Alpha  occ. eigenvalues --   -0.58475  -0.51279  -0.50301  -0.49838  -0.49354
 Alpha  occ. eigenvalues --   -0.48091  -0.47782  -0.46341  -0.45334  -0.44092
 Alpha  occ. eigenvalues --   -0.43586  -0.42127  -0.41494  -0.40646  -0.39222
 Alpha  occ. eigenvalues --   -0.38453  -0.37609  -0.36460  -0.35257  -0.34434
 Alpha  occ. eigenvalues --   -0.32080  -0.31313  -0.30946  -0.27850  -0.25883
 Alpha  occ. eigenvalues --   -0.24800  -0.24037  -0.23587
 Alpha virt. eigenvalues --    0.07458   0.08264   0.08688   0.08856   0.09893
 Alpha virt. eigenvalues --    0.12066   0.12626   0.13211   0.13838   0.14724
 Alpha virt. eigenvalues --    0.14784   0.15945   0.16198   0.17259   0.17545

 Mulliken charges:
               1
     1  N   -0.643256
     2  C   -0.073221
     3  C    0.069799
     4  O   -0.520568
     5  C    0.052284
     6  C    0.043463
     7  O   -0.495936
     8  C    0.031953
     9  C    0.007235
    10  O   -0.456990
    11  C    0.009655
    12  C   -0.132496
    13  N   -0.110139
    14  H    0.254050
    15  H    0.256978
    16  H    0.091779
    17  H    0.111818
    18  H    0.103113
    19  H    0.092421
    20  H    0.096763
    21  H    0.099660
    22  H    0.097029
    23  H    0.095438
    24  H    0.116018
    25  H    0.101671
    26  H    0.104914
    27  H    0.118549
    28  H    0.099394
    29  H    0.129840
    30  H    0.128570
    31  H    0.107336
    32  H    0.014715
    33  H   -0.001837
 Sum of Mulliken charges =   0.00000

 Dipole moment (field-independent basis, Debye):
    X=              0.7715    Y=              0.5681    Z=             -1.3445  Tot=              1.6509
 Quadrupole moment (field-independent basis, Debye-Ang):
   XX=            -73.7047   YY=            -87.4734   ZZ=            -82.5522
   XY=              1.6068   XZ=             -7.3554   YZ=              1.3081

 Summary of Natural Population Analysis:

                                       Natural Population
                Natural  -----------------------------------------------
    Atom  No    Charge         Core      Valence    Rydberg      Total
 -----------------------------------------------------------------------
      N    1   -0.92989      1.99968     5.91540    0.01482     7.92989
      C    2   -0.29311      1.99936     4.28028    0.01347     6.29311
      C    3   -0.11755      1.99928     4.09852    0.01976     6.11755
      O    4   -0.60067      1.99979     6.58841    0.01247     8.60067
      C    5   -0.12633      1.99928     4.10876    0.01829     6.12633
      C    6   -0.13354      1.99928     4.11519    0.01906     6.13354
      O    7   -0.58375      1.99979     6.57049    0.01346     8.58375
      C    8   -0.14657      1.99928     4.12493    0.02236     6.14657
      C    9   -0.15634      1.99927     4.13604    0.02103     6.15634
      O   10   -0.56216      1.99981     6.54782    0.01453     8.56216
      C   11   -0.17156      1.99924     4.14325    0.02907     6.17156
      C   12   -0.39279      1.99932     4.36752    0.02595     6.39279
      N   13   -0.47871      1.99938     5.45452    0.02482     7.47871
      H   14    0.38608      0.00000     0.61063    0.00329     0.61392
      H   15    0.39459      0.00000     0.60244    0.00297     0.60541
      H   16    0.20764      0.00000     0.78901    0.00335     0.79236
      H   17    0.22719      0.00000     0.77096    0.00184     0.77281
      H   18    0.22346      0.00000     0.77464    0.00190     0.77654
      H   19    0.20455      0.00000     0.79195    0.00350     0.79545
      H   20    0.20676      0.00000     0.78998    0.00326     0.79324
      H   21    0.20656      0.00000     0.79023    0.00321     0.79344
      H   22    0.20690      0.00000     0.78850    0.00460     0.79310
      H   23    0.20350      0.00000     0.79073    0.00576     0.79650
      H   24    0.23337      0.00000     0.76429    0.00235     0.76663
      H   25    0.20799      0.00000     0.78876    0.00325     0.79201
      H   26    0.20826      0.00000     0.78639    0.00535     0.79174
      H   27    0.23310      0.00000     0.76432    0.00258     0.76690
      H   28    0.21023      0.00000     0.77948    0.01028     0.78977
      H   29    0.24530      0.00000     0.75129    0.00341     0.75470
      H   30    0.25473      0.00000     0.72399    0.02127     0.74527
      H   31    0.22670      0.00000     0.75586    0.01744     0.77330
      H   32    0.21004      0.00000     0.71181    0.07815     0.78996
      H   33    0.19600      0.00000     0.72545    0.07854     0.80400
 =======================================================================
   * Total *   -0.00000     25.99275    79.50184    0.50541   106.00000

 Normal termination of Gaussian 16 at Thu Jul 18 15:07:33 2024.
