 Gaussian 16, Revision A.03,

 -------------------------------------------------------
 # opt=CalcFc B3LYP/6-31G** SCRF=(Solvent=water) scf=xqc
 -------------------------------------------------------

 ----------------------------------
 NIQFAJBKEHPUAM-UHFFFAOYSA-N_conf_4
 ----------------------------------
 Symbolic Z-matrix:
 Charge =  0 Multiplicity = 1

 SCF Done:  E(RB3LYP) =  -652.045619917     A.U. after   11 cycles
 SCF Done:  E(RB3LYP) =  -652.048561603     A.U. after   10 cycles
 SCF Done:  E(RB3LYP) =  -652.049016912     A.U. after    9 cycles
 SCF Done:  E(RB3LYP) =  -652.049058842     A.U. after    9 cycles
 SCF Done:  E(RB3LYP) =  -652.049066282     A.U. after    8 cycles
 SCF Done:  E(RB3LYP) =  -652.049066695     A.U. after    7 cycles
 SCF Done:  E(RB3LYP) =  -652.049066772     A.U. after    6 cycles
 Optimization completed.
    -- Stationary point found.
 Normal termination of Gaussian 16 at Thu Jul 18 15:15:29 2024.

 ----------------------------------------------------------------------
 # freq B3LYP/6-31G** SCRF=(Solvent=water) volume NMR pop=NPA density=c
 urrent Geom=AllCheck Guess=Read
 ----------------------------------------------------------------------

 Structure from the checkpoint file:  "NIQFAJBKEHPUAM-UHFFFAOYSA-N_conf_4_1.chk"
 ----------------------------------
 NIQFAJBKEHPUAM-UHFFFAOYSA-N_conf_4
 ----------------------------------
 Charge =  0 Multiplicity = 1

 SCF Done:  E(RB3LYP) =  -652.049066772     A.U. after    1 cycles

      1  N    Isotropic =   243.4961   Anisotropy =    21.4666

      2  C    Isotropic =   148.1523   Anisotropy =    40.0659

      3  C    Isotropic =   116.8420   Anisotropy =    77.1076

      4  O    Isotropic =   290.5949   Anisotropy =    51.4594

      5  C    Isotropic =   119.9220   Anisotropy =    58.6184

      6  C    Isotropic =   120.0874   Anisotropy =    57.1928

      7  O    Isotropic =   285.7668   Anisotropy =    54.5825

      8  C    Isotropic =   124.0573   Anisotropy =    61.1676

      9  C    Isotropic =   119.8499   Anisotropy =    53.6336

     10  O    Isotropic =   297.0807   Anisotropy =    21.7997

     11  C    Isotropic =   121.5583   Anisotropy =    72.4051

     12  C    Isotropic =   150.2755   Anisotropy =    44.1971

     13  N    Isotropic =   244.2962   Anisotropy =    24.1395

     14  H    Isotropic =    31.4836   Anisotropy =    13.7790

     15  H    Isotropic =    31.4807   Anisotropy =    13.7300

     16  H    Isotropic =    29.0802   Anisotropy =     5.4916

     17  H    Isotropic =    29.0676   Anisotropy =     5.4550

     18  H    Isotropic =    28.5729   Anisotropy =     5.3667

     19  H    Isotropic =    28.5214   Anisotropy =     5.4040

     20  H    Isotropic =    28.2034   Anisotropy =     6.0114

     21  H    Isotropic =    28.3758   Anisotropy =     5.8912

     22  H    Isotropic =    27.1729   Anisotropy =     5.0885

     23  H    Isotropic =    28.4534   Anisotropy =     4.8000

     24  H    Isotropic =    28.0406   Anisotropy =     5.9989

     25  H    Isotropic =    28.3040   Anisotropy =     7.8027

     26  H    Isotropic =    28.2954   Anisotropy =     5.7672

     27  H    Isotropic =    27.8874   Anisotropy =     6.6095

     28  H    Isotropic =    28.5254   Anisotropy =     5.6755

     29  H    Isotropic =    28.3625   Anisotropy =     5.4169

     30  H    Isotropic =    29.0874   Anisotropy =     4.9872

     31  H    Isotropic =    29.3661   Anisotropy =     5.8754

     32  H    Isotropic =    31.6792   Anisotropy =    13.7327

     33  H    Isotropic =    31.5405   Anisotropy =    13.7082

  Exact polarizability: 155.515  -2.150 130.140  -2.883  -5.176 135.200
 Approx polarizability: 154.470  -2.577 142.488  -3.070  -6.165 146.528

                      1                      2                      3
                      A                      A                      A
 Frequencies --     12.5252                30.9010                40.9820
 Red. masses --      4.9740                 3.6533                 4.0571
 Frc consts  --      0.0005                 0.0021                 0.0040
 IR Inten    --      0.0913                 1.9776                 1.3352

                      4                      5                      6
                      A                      A                      A
 Frequencies --     52.7565                54.7678                90.6064
 Red. masses --      1.9229                 2.8313                 2.3792
 Frc consts  --      0.0032                 0.0050                 0.0115
 IR Inten    --      8.3577                 1.6792                 2.1625

                      7                      8                      9
                      A                      A                      A
 Frequencies --    107.0357               116.8885               130.4941
 Red. masses --      4.6120                 2.3451                 3.5987
 Frc consts  --      0.0311                 0.0189                 0.0361
 IR Inten    --      5.0723                 4.0698                 1.7810

                     10                     11                     12
                      A                      A                      A
 Frequencies --    149.7699               179.9015               228.0973
 Red. masses --      2.8796                 3.5648                 3.1504
 Frc consts  --      0.0381                 0.0680                 0.0966
 IR Inten    --      7.3109                 2.7889                 2.9849

                     13                     14                     15
                      A                      A                      A
 Frequencies --    280.4720               293.7891               299.2687
 Red. masses --      2.7455                 2.1307                 1.4092
 Frc consts  --      0.1272                 0.1084                 0.0744
 IR Inten    --      6.9106                27.4018                55.8168

                     16                     17                     18
                      A                      A                      A
 Frequencies --    307.4892               322.6722               369.4784
 Red. masses --      1.0985                 2.3007                 3.1346
 Frc consts  --      0.0612                 0.1411                 0.2521
 IR Inten    --     74.2495                 7.0661                 6.2241

                     19                     20                     21
                      A                      A                      A
 Frequencies --    413.8076               439.8814               493.3401
 Red. masses --      2.3757                 3.7184                 3.1920
 Frc consts  --      0.2397                 0.4239                 0.4577
 IR Inten    --      0.7954                 6.1733                18.2147

                     22                     23                     24
                      A                      A                      A
 Frequencies --    503.7736               581.5577               774.5856
 Red. masses --      2.4684                 2.2538                 1.1409
 Frc consts  --      0.3691                 0.4491                 0.4033
 IR Inten    --     12.5473                19.6089                 2.9506

                     25                     26                     27
                      A                      A                      A
 Frequencies --    797.7777               816.5923               866.6730
 Red. masses --      1.1089                 2.4793                 2.3797
 Frc consts  --      0.4158                 0.9741                 1.0531
 IR Inten    --      0.6072                 7.8546                56.1289

                     28                     29                     30
                      A                      A                      A
 Frequencies --    894.7233               896.2076               904.6316
 Red. masses --      1.7399                 2.1581                 1.6704
 Frc consts  --      0.8206                 1.0213                 0.8054
 IR Inten    --    141.4022               175.7920               204.3901

                     31                     32                     33
                      A                      A                      A
 Frequencies --    925.7699              1002.5278              1011.4347
 Red. masses --      2.3351                 1.4840                 1.1637
 Frc consts  --      1.1792                 0.8788                 0.7014
 IR Inten    --     22.0981                15.8241                 1.5601

                     34                     35                     36
                      A                      A                      A
 Frequencies --   1014.1386              1046.5124              1050.7820
 Red. masses --      1.8490                 2.9638                 3.5677
 Frc consts  --      1.1204                 1.9124                 2.3209
 IR Inten    --     61.9995                29.2944                37.2385

                     37                     38                     39
                      A                      A                      A
 Frequencies --   1060.0671              1082.1841              1095.4831
 Red. masses --      2.7545                 3.3693                 2.8270
 Frc consts  --      1.8237                 2.3248                 1.9989
 IR Inten    --     29.2383                94.5313               160.1052

                     40                     41                     42
                      A                      A                      A
 Frequencies --   1108.4640              1115.1690              1138.5552
 Red. masses --      2.8144                 2.7213                 4.5037
 Frc consts  --      2.0374                 1.9939                 3.4398
 IR Inten    --      8.5606                64.7429               204.1053

                     43                     44                     45
                      A                      A                      A
 Frequencies --   1145.3231              1150.8548              1163.6704
 Red. masses --      2.6331                 2.7484                 5.4909
 Frc consts  --      2.0350                 2.1447                 4.3808
 IR Inten    --     84.9789                43.1972               139.6825

                     46                     47                     48
                      A                      A                      A
 Frequencies --   1220.0179              1239.8610              1262.8842
 Red. masses --      1.2963                 1.5338                 1.1362
 Frc consts  --      1.1368                 1.3892                 1.0676
 IR Inten    --      5.3308                29.7138                16.6117

                     49                     50                     51
                      A                      A                      A
 Frequencies --   1295.2109              1311.2011              1313.8281
 Red. masses --      1.1377                 1.1674                 1.1554
 Frc consts  --      1.1245                 1.1826                 1.1750
 IR Inten    --      3.7541                22.6264                 2.5875

                     52                     53                     54
                      A                      A                      A
 Frequencies --   1323.1478              1343.8156              1346.9901
 Red. masses --      1.1291                 1.2191                 1.2383
 Frc consts  --      1.1646                 1.2970                 1.3237
 IR Inten    --     24.0243                33.0363                50.3083

                     55                     56                     57
                      A                      A                      A
 Frequencies --   1349.8764              1386.5157              1386.9433
 Red. masses --      1.1282                 1.1953                 1.2022
 Frc consts  --      1.2112                 1.3539                 1.3626
 IR Inten    --     10.1999                 0.0347                 7.9959

                     58                     59                     60
                      A                      A                      A
 Frequencies --   1392.2053              1405.5957              1417.5407
 Red. masses --      1.2299                 1.2641                 1.3475
 Frc consts  --      1.4045                 1.4715                 1.5954
 IR Inten    --     44.6657                13.2016                19.6290

                     61                     62                     63
                      A                      A                      A
 Frequencies --   1428.4340              1434.6189              1462.5252
 Red. masses --      1.3408                 1.3473                 1.5602
 Frc consts  --      1.6119                 1.6338                 1.9663
 IR Inten    --      3.7650                 0.8473                 1.0116

                     64                     65                     66
                      A                      A                      A
 Frequencies --   1482.7573              1487.0803              1498.8825
 Red. masses --      1.0896                 1.0957                 1.0913
 Frc consts  --      1.4115                 1.4277                 1.4446
 IR Inten    --      5.6835                 2.6575                 0.4247

                     67                     68                     69
                      A                      A                      A
 Frequencies --   1499.8083              1511.9116              1514.6559
 Red. masses --      1.0833                 1.0926                 1.0893
 Frc consts  --      1.4357                 1.4715                 1.4724
 IR Inten    --      6.0474                14.5844                 0.8985

                     70                     71                     72
                      A                      A                      A
 Frequencies --   1520.6544              1536.5441              1661.3272
 Red. masses --      1.0906                 1.0940                 1.0891
 Frc consts  --      1.4859                 1.5219                 1.7710
 IR Inten    --      4.8334                 0.6506                32.6647

                     73                     74                     75
                      A                      A                      A
 Frequencies --   1661.3564              2959.9521              2979.3092
 Red. masses --      1.0904                 1.0544                 1.0576
 Frc consts  --      1.7732                 5.4429                 5.5312
 IR Inten    --     33.8828                63.4382                48.9954

                     76                     77                     78
                      A                      A                      A
 Frequencies --   2991.5173              2994.9168              2998.4400
 Red. masses --      1.1056                 1.0654                 1.0663
 Frc consts  --      5.8293                 5.6304                 5.6483
 IR Inten    --    126.7926                57.9367                97.2549

                     79                     80                     81
                      A                      A                      A
 Frequencies --   3005.2724              3015.5508              3019.0191
 Red. masses --      1.0620                 1.1060                 1.0664
 Frc consts  --      5.6514                 5.9258                 5.7264
 IR Inten    --     83.2315                68.2580                55.8853

                     82                     83                     84
                      A                      A                      A
 Frequencies --   3043.6598              3046.3950              3067.0634
 Red. masses --      1.0597                 1.0592                 1.0998
 Frc consts  --      5.7841                 5.7915                 6.0955
 IR Inten    --     65.3432                60.3518                26.7876

                     85                     86                     87
                      A                      A                      A
 Frequencies --   3073.6859              3074.0686              3089.9606
 Red. masses --      1.0944                 1.0977                 1.1007
 Frc consts  --      6.0918                 6.1115                 6.1918
 IR Inten    --     49.4634                60.5096                69.0608

                     88                     89                     90
                      A                      A                      A
 Frequencies --   3091.0934              3092.9341              3477.0290
 Red. masses --      1.1070                 1.1070                 1.0499
 Frc consts  --      6.2321                 6.2391                 7.4785
 IR Inten    --     67.5940                96.5275                 0.6618

                     91                     92                     93
                      A                      A                      A
 Frequencies --   3478.5693              3556.1291              3557.6486
 Red. masses --      1.0500                 1.0921                 1.0922
 Frc consts  --      7.4855                 8.1374                 8.1445
 IR Inten    --      0.5025                 0.0038                 0.0212

 - Thermochemistry -
 -------------------
 Temperature   298.150 Kelvin.  Pressure   1.00000 Atm.
 Atom     1 has atomic number  7 and mass  14.00307

 Molecular mass:   192.14739 amu.
 Principal axes and moments of inertia in atomic units:
                           1         2         3
     Eigenvalues --  1056.831428903.887919230.84645
           X            1.00000  -0.00140   0.00112
           Y            0.00139   0.99999   0.00428
           Z           -0.00113  -0.00428   0.99999
 This molecule is an asymmetric top.
 Rotational symmetry number  1.
 Warning -- assumption of classical behavior for rotation
           may cause significant error
 Rotational temperatures (Kelvin)      0.08196     0.00973     0.00938
 Rotational constants (GHZ):           1.70769     0.20269     0.19551
 Zero-point vibrational energy     776799.8 (Joules/Mol)
                                  185.65961 (Kcal/Mol)
 Warning -- explicit consideration of  23 degrees of freedom as
           vibrations may cause significant error
 Vibrational temperatures:     18.02    44.46    58.96    75.90    78.80
          (Kelvin)            130.36   154.00   168.18   187.75   215.49
                              258.84   328.18   403.54   422.70   430.58
                              442.41   464.25   531.60   595.38   632.89
                              709.81   724.82   836.73  1114.46  1147.82
                             1174.89  1246.95  1287.31  1289.44  1301.56
                             1331.98  1442.41  1455.23  1459.12  1505.70
                             1511.84  1525.20  1557.02  1576.16  1594.83
                             1604.48  1638.13  1647.86  1655.82  1674.26
                             1755.33  1783.88  1817.01  1863.52  1886.53
                             1890.31  1903.71  1933.45  1938.02  1942.17
                             1994.89  1995.50  2003.07  2022.34  2039.52
                             2055.20  2064.10  2104.25  2133.36  2139.58
                             2156.56  2157.89  2175.30  2179.25  2187.88
                             2210.74  2390.28  2390.32  4258.71  4286.56
                             4304.13  4309.02  4314.09  4323.92  4338.71
                             4343.70  4379.15  4383.08  4412.82  4422.35
                             4422.90  4445.76  4447.39  4450.04  5002.67
                             5004.89  5116.48  5118.66

 Zero-point correction=                           0.295867 (Hartree/Particle)
 Thermal correction to Energy=                    0.312340
 Thermal correction to Enthalpy=                  0.313284
 Thermal correction to Gibbs Free Energy=         0.248259
 Sum of electronic and zero-point Energies=           -651.753199
 Sum of electronic and thermal Energies=              -651.736727
 Sum of electronic and thermal Enthalpies=            -651.735783
 Sum of electronic and thermal Free Energies=         -651.800808

                     E (Thermal)             CV                S
                      KCal/Mol        Cal/Mol-Kelvin    Cal/Mol-Kelvin
 Total                  195.996             57.103            136.856
 Electronic               0.000              0.000              0.000
 Translational            0.889              2.981             41.665
 Rotational               0.889              2.981             32.829
 Vibrational            194.219             51.141             62.362
 Vibration     1          0.593              1.987              7.564
 Vibration     2          0.594              1.984              5.771
 Vibration     3          0.594              1.981              5.211
 Vibration     4          0.596              1.977              4.711
 Vibration     5          0.596              1.976              4.637
 Vibration     6          0.602              1.956              3.647
 Vibration     7          0.606              1.944              3.322
 Vibration     8          0.608              1.935              3.151
 Vibration     9          0.612              1.923              2.939
 Vibration    10          0.618              1.903              2.675
 Vibration    11          0.629              1.867              2.329
 Vibration    12          0.651              1.798              1.894
 Vibration    13          0.680              1.710              1.531
 Vibration    14          0.689              1.685              1.452
 Vibration    15          0.692              1.675              1.421
 Vibration    16          0.697              1.659              1.376
 Vibration    17          0.708              1.630              1.297
 Vibration    18          0.742              1.535              1.082
 Vibration    19          0.777              1.440              0.913
 Vibration    20          0.800              1.383              0.827
 Vibration    21          0.849              1.265              0.675
 Vibration    22          0.859              1.242              0.649
 Vibration    23          0.938              1.071              0.482

 Optimization completed.
    -- Stationary point found.
 Normal termination of Gaussian 16 at Thu Jul 18 15:27:53 2024.
 Gaussian 16:  ES64L-G16RevA.03 25-Dec-2016

 ----------------------------------------------------------------------
 # TD(NStates=10, Root=1) B3LYP/6-31G** SCRF=(Solvent=water) volume pop
 =NPA density=current Geom=AllCheck Guess=Read
 ----------------------------------------------------------------------

 Structure from the checkpoint file:  "NIQFAJBKEHPUAM-UHFFFAOYSA-N_conf_4_2.chk"
 ----------------------------------
 NIQFAJBKEHPUAM-UHFFFAOYSA-N_conf_4
 ----------------------------------
 Charge =  0 Multiplicity = 1

                         Standard orientation:
 ---------------------------------------------------------------------
 Center     Atomic      Atomic             Coordinates (Angstroms)
 Number     Number       Type             X           Y           Z
 ---------------------------------------------------------------------
      1          7           0        5.971811   -1.209930   -0.458731
      2          6           0        4.516725   -1.058284   -0.549465
      3          6           0        3.912799   -0.067823    0.447089
      4          8           0        2.508141   -0.022230    0.247674
      5          6           0        1.850484    0.868184    1.136178
      6          6           0        0.363678    0.859102    0.851005
      7          8           0        0.131875    1.477096   -0.411529
      8          6           0       -1.236081    1.703518   -0.726209
      9          6           0       -1.957543    0.476642   -1.279896
     10          8           0       -2.187448   -0.543654   -0.308229
     11          6           0       -3.392885   -0.396246    0.444133
     12          6           0       -4.580308   -1.097759   -0.230110
     13          7           0       -5.840404   -1.022482    0.516869
     14          1           0        6.222903   -1.502362    0.484392
     15          1           0        6.415000   -0.301831   -0.588960
     16          1           0        4.051099   -2.039069   -0.398895
     17          1           0        4.259301   -0.737829   -1.565589
     18          1           0        4.147208   -0.380977    1.479028
     19          1           0        4.357083    0.931615    0.301693
     20          1           0        2.244874    1.890429    1.021949
     21          1           0        2.014222    0.561817    2.182213
     22          1           0       -0.015373   -0.169504    0.862734
     23          1           0       -0.152391    1.417159    1.648599
     24          1           0       -1.772467    2.102847    0.148770
     25          1           0       -1.242912    2.479066   -1.501292
     26          1           0       -2.900684    0.797372   -1.745593
     27          1           0       -1.336327    0.025671   -2.061284
     28          1           0       -3.628038    0.664766    0.613315
     29          1           0       -3.207450   -0.848709    1.425549
     30          1           0       -4.743200   -0.668395   -1.225862
     31          1           0       -4.322427   -2.152406   -0.380454
     32          1           0       -6.088417   -0.045271    0.664210
     33          1           0       -5.703614   -1.411203    1.448836
 ---------------------------------------------------------------------

 SCF Done:  E(RB3LYP) =  -652.049066772     A.U. after    1 cycles

 Excitation energies and oscillator strengths:

 Excited State   1:      Singlet-A      7.2487 eV  171.04 nm  f=0.0176  <S**2>=0.000
      51 -> 54         0.11062
      51 -> 55        -0.17876
      53 -> 54        -0.35346
      53 -> 55         0.53769
      53 -> 56         0.15946
 This state for optimization and/or second-order correction.
 Total Energy, E(TD-HF/TD-DFT) =  -651.782680437
 Copying the excited state density for this state as the 1-particle RhoCI density.

 Excited State   2:      Singlet-A      7.4579 eV  166.25 nm  f=0.0208  <S**2>=0.000
      52 -> 54         0.55022
      52 -> 55         0.40373
      52 -> 56        -0.16490

 Excited State   3:      Singlet-A      7.5026 eV  165.26 nm  f=0.0142  <S**2>=0.000
      53 -> 54         0.26129
      53 -> 56         0.58129
      53 -> 57         0.26855

 Excited State   4:      Singlet-A      7.9225 eV  156.50 nm  f=0.0194  <S**2>=0.000
      51 -> 54        -0.17949
      51 -> 56        -0.19340
      51 -> 57         0.12159
      53 -> 54        -0.31959
      53 -> 55        -0.21987
      53 -> 57         0.46843
      53 -> 58        -0.15108

 Excited State   5:      Singlet-A      8.0777 eV  153.49 nm  f=0.0117  <S**2>=0.000
      51 -> 56        -0.19586
      53 -> 54         0.40623
      53 -> 55         0.33798
      53 -> 56        -0.26831
      53 -> 57         0.27800

 Excited State   6:      Singlet-A      8.1697 eV  151.76 nm  f=0.0018  <S**2>=0.000
      49 -> 55        -0.12373
      50 -> 54         0.16283
      50 -> 55        -0.15312
      51 -> 54        -0.27872
      51 -> 55         0.48365
      51 -> 56         0.16039
      53 -> 54        -0.11601
      53 -> 55         0.17711
      53 -> 59         0.10835

 Excited State   7:      Singlet-A      8.1755 eV  151.65 nm  f=0.0300  <S**2>=0.000
      50 -> 54        -0.33660
      50 -> 55        -0.18218
      50 -> 56        -0.23972
      50 -> 57         0.36076
      51 -> 54        -0.26319
      51 -> 56        -0.11112
      51 -> 57         0.16205
      53 -> 57        -0.16078

 Excited State   8:      Singlet-A      8.2253 eV  150.74 nm  f=0.0242  <S**2>=0.000
      52 -> 54        -0.16608
      52 -> 56        -0.44172
      52 -> 57         0.49651
      52 -> 58         0.10404

 Excited State   9:      Singlet-A      8.2650 eV  150.01 nm  f=0.0262  <S**2>=0.000
      50 -> 54        -0.16996
      50 -> 55        -0.20444
      50 -> 56         0.34850
      50 -> 57        -0.20176
      51 -> 54        -0.29861
      51 -> 55        -0.12813
      51 -> 56        -0.18712
      51 -> 57        -0.28779
      53 -> 54         0.11607

 Excited State  10:      Singlet-A      8.2771 eV  149.79 nm  f=0.0375  <S**2>=0.000
      50 -> 54        -0.29118
      50 -> 55        -0.19981
      50 -> 57        -0.16236
      51 -> 55        -0.14607
      51 -> 56         0.46993
      51 -> 57         0.14574
      53 -> 56        -0.15995
      53 -> 57         0.17993

 The electronic state is 1-A.
 Alpha  occ. eigenvalues --  -19.15026 -19.14839 -19.14735 -14.31535 -14.31523
 Alpha  occ. eigenvalues --  -10.23015 -10.22988 -10.22983 -10.22693 -10.22683
 Alpha  occ. eigenvalues --  -10.22572 -10.20566 -10.20448  -1.03846  -1.02933
 Alpha  occ. eigenvalues --   -1.01769  -0.87954  -0.87895  -0.77561  -0.74426
 Alpha  occ. eigenvalues --   -0.71007  -0.68766  -0.63275  -0.60818  -0.60159
 Alpha  occ. eigenvalues --   -0.58085  -0.51140  -0.50449  -0.49877  -0.49781
 Alpha  occ. eigenvalues --   -0.48937  -0.46694  -0.45872  -0.45486  -0.44270
 Alpha  occ. eigenvalues --   -0.43160  -0.41995  -0.40814  -0.39880  -0.38778
 Alpha  occ. eigenvalues --   -0.38414  -0.37971  -0.36186  -0.34953  -0.34352
 Alpha  occ. eigenvalues --   -0.32324  -0.31788  -0.30824  -0.28687  -0.25748
 Alpha  occ. eigenvalues --   -0.24950  -0.24154  -0.22650
 Alpha virt. eigenvalues --    0.08177   0.08263   0.08725   0.09429   0.11924
 Alpha virt. eigenvalues --    0.12283   0.12848   0.13623   0.13733   0.14575
 Alpha virt. eigenvalues --    0.15048   0.15134   0.15810   0.16965   0.17472

 Mulliken charges:
               1
     1  N   -0.635971
     2  C   -0.082566
     3  C    0.074157
     4  O   -0.516870
     5  C    0.062201
     6  C    0.045040
     7  O   -0.498442
     8  C    0.042566
     9  C    0.022114
    10  O   -0.422478
    11  C    0.056052
    12  C   -0.120330
    13  N   -0.119997
    14  H    0.254683
    15  H    0.254769
    16  H    0.112186
    17  H    0.112303
    18  H    0.086809
    19  H    0.087590
    20  H    0.097724
    21  H    0.098035
    22  H    0.115946
    23  H    0.102161
    24  H    0.109243
    25  H    0.128777
    26  H    0.122185
    27  H    0.130425
    28  H    0.070249
    29  H    0.089664
    30  H    0.094381
    31  H    0.108438
    32  H   -0.047814
    33  H   -0.033228
 Sum of Mulliken charges =  -0.00000

 Dipole moment (field-independent basis, Debye):
    X=              1.7152    Y=              3.0094    Z=              1.2108  Tot=              3.6694
 Quadrupole moment (field-independent basis, Debye-Ang):
   XX=            -97.4732   YY=            -84.8605   ZZ=            -79.4582
   XY=              2.9175   XZ=             18.0982   YZ=             -1.4195

 Summary of Natural Population Analysis:

                                       Natural Population
                Natural  -----------------------------------------------
    Atom  No    Charge         Core      Valence    Rydberg      Total
 -----------------------------------------------------------------------
      N    1   -0.92270      1.99971     5.90773    0.01527     7.92270
      C    2   -0.28444      1.99936     4.26886    0.01622     6.28444
      C    3   -0.12416      1.99928     4.10911    0.01576     6.12416
      O    4   -0.59872      1.99978     6.58566    0.01328     8.59872
      C    5   -0.12871      1.99927     4.11274    0.01671     6.12871
      C    6   -0.13388      1.99924     4.11710    0.01753     6.13388
      O    7   -0.58296      1.99980     6.57009    0.01308     8.58296
      C    8   -0.13833      1.99925     4.12026    0.01882     6.13833
      C    9   -0.15678      1.99922     4.13914    0.01841     6.15678
      O   10   -0.49443      1.99981     6.48172    0.01290     8.49443
      C   11   -0.15521      1.99915     4.12813    0.02793     6.15521
      C   12   -0.38901      1.99938     4.36335    0.02628     6.38901
      N   13   -0.54144      1.99945     5.51223    0.02977     7.54144
      H   14    0.38716      0.00000     0.60987    0.00297     0.61284
      H   15    0.38721      0.00000     0.60982    0.00297     0.61279
      H   16    0.22953      0.00000     0.76790    0.00257     0.77047
      H   17    0.22959      0.00000     0.76784    0.00257     0.77041
      H   18    0.19953      0.00000     0.79725    0.00322     0.80047
      H   19    0.20020      0.00000     0.79660    0.00320     0.79980
      H   20    0.21123      0.00000     0.78529    0.00348     0.78877
      H   21    0.21568      0.00000     0.78168    0.00264     0.78432
      H   22    0.22364      0.00000     0.77287    0.00349     0.77636
      H   23    0.21786      0.00000     0.77965    0.00249     0.78214
      H   24    0.21271      0.00000     0.78390    0.00339     0.78729
      H   25    0.24869      0.00000     0.74961    0.00170     0.75131
      H   26    0.22862      0.00000     0.76494    0.00644     0.77138
      H   27    0.24181      0.00000     0.75478    0.00341     0.75819
      H   28    0.18942      0.00000     0.78433    0.02625     0.81058
      H   29    0.21790      0.00000     0.75991    0.02218     0.78210
      H   30    0.22178      0.00000     0.75755    0.02067     0.77822
      H   31    0.23504      0.00000     0.74753    0.01743     0.76496
      H   32    0.17047      0.00000     0.74544    0.08409     0.82953
      H   33    0.18270      0.00000     0.73579    0.08151     0.81730
 =======================================================================
   * Total *   -0.00000     25.99269    79.46868    0.53863   106.00000

 Normal termination of Gaussian 16 at Thu Jul 18 15:41:49 2024.
