 Gaussian 16, Revision A.03,

 -------------------------------------------------------
 # opt=CalcFc B3LYP/6-31G** SCRF=(Solvent=water) scf=xqc
 -------------------------------------------------------

 ----------------------------------
 NIQFAJBKEHPUAM-UHFFFAOYSA-N_conf_3
 ----------------------------------
 Symbolic Z-matrix:
 Charge =  0 Multiplicity = 1

 SCF Done:  E(RB3LYP) =  -652.037924146     A.U. after   11 cycles
 SCF Done:  E(RB3LYP) =  -652.041296946     A.U. after   12 cycles
 SCF Done:  E(RB3LYP) =  -652.040943106     A.U. after   12 cycles
 SCF Done:  E(RB3LYP) =  -652.041855928     A.U. after   10 cycles
 SCF Done:  E(RB3LYP) =  -652.041857731     A.U. after   11 cycles
 SCF Done:  E(RB3LYP) =  -652.043208694     A.U. after   10 cycles
 SCF Done:  E(RB3LYP) =  -652.037162430     A.U. after   12 cycles
 SCF Done:  E(RB3LYP) =  -652.044991498     A.U. after   10 cycles
 SCF Done:  E(RB3LYP) =  -652.045859898     A.U. after    9 cycles
 SCF Done:  E(RB3LYP) =  -652.046586876     A.U. after   11 cycles
 SCF Done:  E(RB3LYP) =  -652.048712280     A.U. after    9 cycles
 SCF Done:  E(RB3LYP) =  -652.048728700     A.U. after    8 cycles
 SCF Done:  E(RB3LYP) =  -652.048738912     A.U. after    9 cycles
 SCF Done:  E(RB3LYP) =  -652.048744967     A.U. after    8 cycles
 SCF Done:  E(RB3LYP) =  -652.048747520     A.U. after    7 cycles
 SCF Done:  E(RB3LYP) =  -652.048748883     A.U. after    8 cycles
 SCF Done:  E(RB3LYP) =  -652.048749339     A.U. after    7 cycles
 SCF Done:  E(RB3LYP) =  -652.048749254     A.U. after    6 cycles
 Optimization completed.
    -- Stationary point found.
 Normal termination of Gaussian 16 at Thu Jul 18 15:41:23 2024.

 ----------------------------------------------------------------------
 # freq B3LYP/6-31G** SCRF=(Solvent=water) volume NMR pop=NPA density=c
 urrent Geom=AllCheck Guess=Read
 ----------------------------------------------------------------------

 Structure from the checkpoint file:  "NIQFAJBKEHPUAM-UHFFFAOYSA-N_conf_3_1.chk"
 ----------------------------------
 NIQFAJBKEHPUAM-UHFFFAOYSA-N_conf_3
 ----------------------------------
 Charge =  0 Multiplicity = 1

 SCF Done:  E(RB3LYP) =  -652.048749254     A.U. after    1 cycles

      1  N    Isotropic =   241.7388   Anisotropy =    40.1812

      2  C    Isotropic =   149.7976   Anisotropy =    29.3029

      3  C    Isotropic =   119.7402   Anisotropy =    51.9742

      4  O    Isotropic =   320.6485   Anisotropy =    30.1259

      5  C    Isotropic =   128.5887   Anisotropy =    71.9322

      6  C    Isotropic =   124.6566   Anisotropy =    79.5341

      7  O    Isotropic =   301.5857   Anisotropy =    45.6931

      8  C    Isotropic =   125.1424   Anisotropy =    68.5858

      9  C    Isotropic =   120.3730   Anisotropy =    60.2481

     10  O    Isotropic =   302.3600   Anisotropy =    36.8173

     11  C    Isotropic =   120.3671   Anisotropy =    47.9839

     12  C    Isotropic =   147.5667   Anisotropy =    25.8441

     13  N    Isotropic =   240.0022   Anisotropy =    37.9627

     14  H    Isotropic =    31.8446   Anisotropy =    14.7780

     15  H    Isotropic =    30.5442   Anisotropy =    11.6038

     16  H    Isotropic =    29.5764   Anisotropy =     8.1954

     17  H    Isotropic =    28.9094   Anisotropy =     6.6094

     18  H    Isotropic =    28.4607   Anisotropy =     8.2787

     19  H    Isotropic =    28.3378   Anisotropy =     4.9244

     20  H    Isotropic =    27.8323   Anisotropy =     7.5153

     21  H    Isotropic =    28.4573   Anisotropy =     5.9528

     22  H    Isotropic =    27.8556   Anisotropy =     6.7585

     23  H    Isotropic =    28.4903   Anisotropy =     4.6567

     24  H    Isotropic =    28.0016   Anisotropy =     5.7115

     25  H    Isotropic =    28.3222   Anisotropy =     6.1924

     26  H    Isotropic =    28.4093   Anisotropy =     6.2414

     27  H    Isotropic =    27.6517   Anisotropy =     7.1831

     28  H    Isotropic =    28.9996   Anisotropy =     6.6783

     29  H    Isotropic =    27.8197   Anisotropy =     4.6113

     30  H    Isotropic =    29.2526   Anisotropy =     7.8407

     31  H    Isotropic =    29.0696   Anisotropy =     7.3294

     32  H    Isotropic =    30.5474   Anisotropy =    11.4352

     33  H    Isotropic =    31.7931   Anisotropy =    14.0336

  Exact polarizability: 157.382   6.483 133.663  -1.603   0.244 127.813
 Approx polarizability: 152.750   6.753 144.290   0.103  -1.807 146.319

                      1                      2                      3
                      A                      A                      A
 Frequencies --     14.7528                23.7289                27.6785
 Red. masses --      4.5165                 4.7813                 2.7210
 Frc consts  --      0.0006                 0.0016                 0.0012
 IR Inten    --      0.9308                 1.2798                 2.5456

                      4                      5                      6
                      A                      A                      A
 Frequencies --     42.9546                54.5779                64.7850
 Red. masses --      4.1744                 3.0927                 3.6614
 Frc consts  --      0.0045                 0.0054                 0.0091
 IR Inten    --      0.7442                 2.4775                 1.4342

                      7                      8                      9
                      A                      A                      A
 Frequencies --     97.2983               110.6630               147.7142
 Red. masses --      3.7075                 4.1861                 2.7457
 Frc consts  --      0.0207                 0.0302                 0.0353
 IR Inten    --      0.2194                 0.3701                 3.8347

                     10                     11                     12
                      A                      A                      A
 Frequencies --    197.0337               214.7743               230.6187
 Red. masses --      2.4032                 2.6024                 2.4580
 Frc consts  --      0.0550                 0.0707                 0.0770
 IR Inten    --      8.2081                 7.3936                 6.4881

                     13                     14                     15
                      A                      A                      A
 Frequencies --    253.5532               291.7374               299.2996
 Red. masses --      1.6574                 3.6457                 1.3577
 Frc consts  --      0.0628                 0.1828                 0.0717
 IR Inten    --     31.0224                31.8940                55.8496

                     16                     17                     18
                      A                      A                      A
 Frequencies --    333.0219               344.2409               384.6018
 Red. masses --      1.3663                 2.0208                 2.1825
 Frc consts  --      0.0893                 0.1411                 0.1902
 IR Inten    --     58.7908                 9.4725                 5.7405

                     19                     20                     21
                      A                      A                      A
 Frequencies --    431.7448               478.1027               513.6640
 Red. masses --      2.2767                 2.8348                 2.2770
 Frc consts  --      0.2500                 0.3818                 0.3540
 IR Inten    --     10.7659                17.1372                 8.1381

                     22                     23                     24
                      A                      A                      A
 Frequencies --    538.1027               589.0149               786.3191
 Red. masses --      2.4217                 2.7379                 1.2732
 Frc consts  --      0.4131                 0.5596                 0.4638
 IR Inten    --      5.2974                 4.6352                 9.9758

                     25                     26                     27
                      A                      A                      A
 Frequencies --    798.3298               820.4755               858.0532
 Red. masses --      1.7189                 1.6705                 2.2366
 Frc consts  --      0.6455                 0.6625                 0.9702
 IR Inten    --     22.1954                29.5125                20.3448

                     28                     29                     30
                      A                      A                      A
 Frequencies --    876.7032               893.8999               914.3080
 Red. masses --      2.5946                 2.7405                 1.9311
 Frc consts  --      1.1750                 1.2902                 0.9511
 IR Inten    --     25.1946                55.6979                 3.8078

                     31                     32                     33
                      A                      A                      A
 Frequencies --    943.6795               950.0673               966.7276
 Red. masses --      1.5853                 1.4293                 1.8166
 Frc consts  --      0.8318                 0.7601                 1.0003
 IR Inten    --    231.8787               214.5583                44.5729

                     34                     35                     36
                      A                      A                      A
 Frequencies --   1006.6230              1036.3739              1043.4896
 Red. masses --      1.7976                 3.1235                 2.2287
 Frc consts  --      1.0732                 1.9766                 1.4298
 IR Inten    --     36.6460                 7.9933                78.2722

                     37                     38                     39
                      A                      A                      A
 Frequencies --   1048.5722              1058.4855              1095.7835
 Red. masses --      3.4787                 2.5822                 2.8908
 Frc consts  --      2.2535                 1.7046                 2.0451
 IR Inten    --     19.1960                68.1355               147.1011

                     40                     41                     42
                      A                      A                      A
 Frequencies --   1116.6248              1138.3763              1143.0408
 Red. masses --      2.7834                 2.4486                 2.2257
 Frc consts  --      2.0448                 1.8696                 1.7133
 IR Inten    --    229.1197               101.6261                41.2632

                     43                     44                     45
                      A                      A                      A
 Frequencies --   1149.8255              1157.1238              1192.8100
 Red. masses --      3.0222                 3.6491                 2.0222
 Frc consts  --      2.3541                 2.8787                 1.6952
 IR Inten    --     79.8684               111.8025                 8.3323

                     46                     47                     48
                      A                      A                      A
 Frequencies --   1214.6279              1222.4295              1272.4432
 Red. masses --      1.4055                 1.6146                 1.1990
 Frc consts  --      1.2217                 1.4215                 1.1438
 IR Inten    --     31.1526                10.4131                24.0228

                     49                     50                     51
                      A                      A                      A
 Frequencies --   1279.4599              1286.6939              1313.1394
 Red. masses --      1.1503                 1.2009                 1.1756
 Frc consts  --      1.1095                 1.1714                 1.1944
 IR Inten    --      8.6060                53.4443                 3.2439

                     52                     53                     54
                      A                      A                      A
 Frequencies --   1326.9175              1339.3778              1355.1671
 Red. masses --      1.1514                 1.1083                 1.2180
 Frc consts  --      1.1945                 1.1714                 1.3179
 IR Inten    --     38.4511                 6.8362                27.8944

                     55                     56                     57
                      A                      A                      A
 Frequencies --   1391.0787              1393.5788              1394.1992
 Red. masses --      1.2573                 1.2511                 1.2680
 Frc consts  --      1.4335                 1.4316                 1.4522
 IR Inten    --     31.4511                 0.6134                25.4763

                     58                     59                     60
                      A                      A                      A
 Frequencies --   1397.8201              1407.3137              1411.8633
 Red. masses --      1.1860                 1.2988                 1.2563
 Frc consts  --      1.3653                 1.5156                 1.4755
 IR Inten    --      5.7855                 4.4879                17.1702

                     61                     62                     63
                      A                      A                      A
 Frequencies --   1428.1422              1433.9816              1442.5074
 Red. masses --      1.3204                 1.3824                 1.3791
 Frc consts  --      1.5867                 1.6748                 1.6908
 IR Inten    --     10.8711                 3.2412                 3.2156

                     64                     65                     66
                      A                      A                      A
 Frequencies --   1485.2698              1486.3438              1488.4252
 Red. masses --      1.0913                 1.0919                 1.0914
 Frc consts  --      1.4184                 1.4213                 1.4246
 IR Inten    --      3.9333                 3.2578                 2.0291

                     67                     68                     69
                      A                      A                      A
 Frequencies --   1493.1639              1504.8206              1519.6490
 Red. masses --      1.0871                 1.0863                 1.0896
 Frc consts  --      1.4280                 1.4493                 1.4825
 IR Inten    --      0.4623                 5.3272                 3.3780

                     70                     71                     72
                      A                      A                      A
 Frequencies --   1522.6007              1524.2639              1662.6356
 Red. masses --      1.0920                 1.0924                 1.0868
 Frc consts  --      1.4916                 1.4954                 1.7701
 IR Inten    --     10.5319                 7.5147                32.6753

                     73                     74                     75
                      A                      A                      A
 Frequencies --   1663.2405              2975.2893              2991.4232
 Red. masses --      1.0863                 1.0573                 1.0575
 Frc consts  --      1.7705                 5.5143                 5.5756
 IR Inten    --     34.9498                52.7424                23.4505

                     76                     77                     78
                      A                      A                      A
 Frequencies --   3004.4282              3010.5407              3014.9845
 Red. masses --      1.0699                 1.0657                 1.0650
 Frc consts  --      5.6900                 5.6910                 5.7041
 IR Inten    --    140.0413                40.8296                92.7533

                     79                     80                     81
                      A                      A                      A
 Frequencies --   3017.0695              3028.4699              3031.7462
 Red. masses --      1.0924                 1.0972                 1.0694
 Frc consts  --      5.8585                 5.9289                 5.7914
 IR Inten    --     62.5985                41.1696                48.7538

                     82                     83                     84
                      A                      A                      A
 Frequencies --   3039.1042              3045.3139              3071.9010
 Red. masses --      1.0621                 1.0645                 1.1017
 Frc consts  --      5.7795                 5.8166                 6.1255
 IR Inten    --     84.2699                91.6036                34.6714

                     85                     86                     87
                      A                      A                      A
 Frequencies --   3079.5019              3084.6097              3089.6715
 Red. masses --      1.0978                 1.1046                 1.1041
 Frc consts  --      6.1339                 6.1922                 6.2099
 IR Inten    --      3.5168               115.5162                65.5296

                     88                     89                     90
                      A                      A                      A
 Frequencies --   3093.2470              3100.1513              3468.4273
 Red. masses --      1.0967                 1.1051                 1.0501
 Frc consts  --      6.1827                 6.2579                 7.4431
 IR Inten    --     52.8977               102.2516                 1.9121

                     91                     92                     93
                      A                      A                      A
 Frequencies --   3472.8690              3546.1968              3551.0139
 Red. masses --      1.0503                 1.0910                 1.0910
 Frc consts  --      7.4637                 8.0837                 8.1055
 IR Inten    --      1.4375                 0.7201                 0.8616

 - Thermochemistry -
 -------------------
 Temperature   298.150 Kelvin.  Pressure   1.00000 Atm.
 Atom     1 has atomic number  7 and mass  14.00307

 Molecular mass:   192.14739 amu.
 Principal axes and moments of inertia in atomic units:
                           1         2         3
     Eigenvalues --   591.68873********************
           X            0.99998   0.00251  -0.00525
           Y           -0.00259   0.99990  -0.01375
           Z            0.00521   0.01377   0.99989
 This molecule is an asymmetric top.
 Rotational symmetry number  1.
 Warning -- assumption of classical behavior for rotation
           may cause significant error
 Rotational temperatures (Kelvin)      0.14638     0.00846     0.00834
 Rotational constants (GHZ):           3.05015     0.17634     0.17374
 Zero-point vibrational energy     777910.4 (Joules/Mol)
                                  185.92506 (Kcal/Mol)
 Warning -- explicit consideration of  23 degrees of freedom as
           vibrations may cause significant error
 Vibrational temperatures:     21.23    34.14    39.82    61.80    78.53
          (Kelvin)             93.21   139.99   159.22   212.53   283.49
                              309.01   331.81   364.81   419.75   430.63
                              479.14   495.29   553.36   621.18   687.88
                              739.05   774.21   847.46  1131.34  1148.62
                             1180.48  1234.55  1261.38  1286.12  1315.49
                             1357.74  1366.93  1390.91  1448.31  1491.11
                             1501.35  1508.66  1522.92  1576.59  1606.57
                             1637.87  1644.58  1654.34  1664.84  1716.19
                             1747.58  1758.80  1830.76  1840.86  1851.27
                             1889.31  1909.14  1927.07  1949.78  2001.45
                             2005.05  2005.94  2011.15  2024.81  2031.36
                             2054.78  2063.18  2075.45  2136.97  2138.52
                             2141.51  2148.33  2165.10  2186.44  2190.68
                             2193.08  2392.16  2393.03  4280.78  4303.99
                             4322.70  4331.50  4337.89  4340.89  4357.29
                             4362.01  4372.59  4381.53  4419.78  4430.72
                             4438.07  4445.35  4450.49  4460.43  4990.29
                             4996.68  5102.19  5109.12

 Zero-point correction=                           0.296290 (Hartree/Particle)
 Thermal correction to Energy=                    0.312628
 Thermal correction to Enthalpy=                  0.313572
 Thermal correction to Gibbs Free Energy=         0.248293
 Sum of electronic and zero-point Energies=           -651.752459
 Sum of electronic and thermal Energies=              -651.736122
 Sum of electronic and thermal Enthalpies=            -651.735178
 Sum of electronic and thermal Free Energies=         -651.800456

                     E (Thermal)             CV                S
                      KCal/Mol        Cal/Mol-Kelvin    Cal/Mol-Kelvin
 Total                  196.177             56.782            137.390
 Electronic               0.000              0.000              0.000
 Translational            0.889              2.981             41.665
 Rotational               0.889              2.981             32.509
 Vibrational            194.399             50.820             63.217
 Vibration     1          0.593              1.986              7.239
 Vibration     2          0.593              1.985              6.295
 Vibration     3          0.593              1.984              5.989
 Vibration     4          0.595              1.980              5.118
 Vibration     5          0.596              1.976              4.644
 Vibration     6          0.597              1.971              4.306
 Vibration     7          0.603              1.951              3.508
 Vibration     8          0.606              1.941              3.257
 Vibration     9          0.617              1.905              2.701
 Vibration    10          0.636              1.844              2.161
 Vibration    11          0.645              1.818              2.003
 Vibration    12          0.652              1.794              1.874
 Vibration    13          0.665              1.757              1.706
 Vibration    14          0.687              1.689              1.464
 Vibration    15          0.692              1.675              1.421
 Vibration    16          0.715              1.610              1.245
 Vibration    17          0.723              1.587              1.192
 Vibration    18          0.754              1.503              1.021
 Vibration    19          0.793              1.401              0.853
 Vibration    20          0.835              1.299              0.715
 Vibration    21          0.869              1.220              0.625
 Vibration    22          0.893              1.166              0.569
 Vibration    23          0.946              1.055              0.469

 Optimization completed.
    -- Stationary point found.
 Normal termination of Gaussian 16 at Thu Jul 18 15:53:15 2024.
 Gaussian 16:  ES64L-G16RevA.03 25-Dec-2016

 ----------------------------------------------------------------------
 # TD(NStates=10, Root=1) B3LYP/6-31G** SCRF=(Solvent=water) volume pop
 =NPA density=current Geom=AllCheck Guess=Read
 ----------------------------------------------------------------------

 Structure from the checkpoint file:  "NIQFAJBKEHPUAM-UHFFFAOYSA-N_conf_3_2.chk"
 ----------------------------------
 NIQFAJBKEHPUAM-UHFFFAOYSA-N_conf_3
 ----------------------------------
 Charge =  0 Multiplicity = 1

                         Standard orientation:
 ---------------------------------------------------------------------
 Center     Atomic      Atomic             Coordinates (Angstroms)
 Number     Number       Type             X           Y           Z
 ---------------------------------------------------------------------
      1          7           0       -6.027666    0.518354   -0.087966
      2          6           0       -5.119131   -0.166978    0.838865
      3          6           0       -4.049645   -1.033653    0.167854
      4          8           0       -3.252104   -0.270005   -0.744130
      5          6           0       -2.116316    0.364360   -0.159592
      6          6           0       -0.889788   -0.553008   -0.243365
      7          8           0        0.260258    0.015824    0.368898
      8          6           0        0.956246    0.958152   -0.438698
      9          6           0        2.241620    1.354243    0.274402
     10          8           0        3.161395    0.288483    0.462911
     11          6           0        3.887757   -0.092456   -0.701858
     12          6           0        5.010779   -1.028163   -0.260057
     13          7           0        5.976841   -0.447199    0.679074
     14          1           0       -6.545928   -0.183156   -0.616448
     15          1           0       -5.452634    0.996685   -0.780895
     16          1           0       -5.707826   -0.797129    1.516519
     17          1           0       -4.630262    0.591687    1.463308
     18          1           0       -4.528094   -1.816439   -0.432574
     19          1           0       -3.421952   -1.528265    0.922601
     20          1           0       -1.945823    1.288196   -0.721654
     21          1           0       -2.297783    0.641810    0.887058
     22          1           0       -1.093510   -1.486229    0.292478
     23          1           0       -0.693114   -0.806881   -1.295382
     24          1           0        1.170559    0.525360   -1.427670
     25          1           0        0.363560    1.870709   -0.603469
     26          1           0        2.711585    2.179860   -0.282163
     27          1           0        1.992406    1.718125    1.276566
     28          1           0        4.306989    0.801023   -1.193578
     29          1           0        3.238204   -0.600570   -1.430891
     30          1           0        5.544547   -1.378776   -1.150609
     31          1           0        4.560809   -1.911196    0.210337
     32          1           0        5.447699   -0.023494    1.440070
     33          1           0        6.450824    0.331195    0.221909
 ---------------------------------------------------------------------

 SCF Done:  E(RB3LYP) =  -652.048749254     A.U. after    1 cycles

 Excitation energies and oscillator strengths:

 Excited State   1:      Singlet-A      7.3396 eV  168.93 nm  f=0.0181  <S**2>=0.000
      53 -> 54         0.54651
      53 -> 55        -0.40957
 This state for optimization and/or second-order correction.
 Total Energy, E(TD-HF/TD-DFT) =  -651.779024878
 Copying the excited state density for this state as the 1-particle RhoCI density.

 Excited State   2:      Singlet-A      7.6272 eV  162.55 nm  f=0.0222  <S**2>=0.000
      52 -> 54         0.45459
      52 -> 55         0.29374
      52 -> 56         0.40112
      53 -> 55        -0.10713

 Excited State   3:      Singlet-A      7.6516 eV  162.04 nm  f=0.0017  <S**2>=0.000
      51 -> 54         0.42869
      51 -> 56        -0.10575
      52 -> 56         0.11004
      53 -> 54         0.24719
      53 -> 55         0.39680
      53 -> 56        -0.15274
      53 -> 59        -0.12265

 Excited State   4:      Singlet-A      7.9446 eV  156.06 nm  f=0.0186  <S**2>=0.000
      51 -> 54        -0.32953
      51 -> 55         0.41854
      53 -> 54         0.17900
      53 -> 55         0.30319
      53 -> 56        -0.11488
      53 -> 57        -0.20052
      53 -> 58         0.10188

 Excited State   5:      Singlet-A      8.0500 eV  154.02 nm  f=0.0438  <S**2>=0.000
      50 -> 54         0.59055
      50 -> 55         0.28016
      52 -> 54         0.13183
      52 -> 56        -0.15325

 Excited State   6:      Singlet-A      8.1344 eV  152.42 nm  f=0.0269  <S**2>=0.000
      49 -> 54         0.17526
      51 -> 54         0.37270
      51 -> 55         0.34208
      51 -> 56        -0.15326
      53 -> 54        -0.25509
      53 -> 55        -0.16017
      53 -> 57        -0.20145
      53 -> 59         0.17409

 Excited State   7:      Singlet-A      8.2409 eV  150.45 nm  f=0.0158  <S**2>=0.000
      50 -> 54        -0.18147
      52 -> 54         0.49317
      52 -> 55        -0.11990
      52 -> 56        -0.40436
      52 -> 57         0.10687

 Excited State   8:      Singlet-A      8.3689 eV  148.15 nm  f=0.0690  <S**2>=0.000
      51 -> 55         0.31725
      51 -> 59         0.12417
      53 -> 56         0.22812
      53 -> 57         0.47181
      53 -> 58        -0.26570

 Excited State   9:      Singlet-A      8.4503 eV  146.72 nm  f=0.0075  <S**2>=0.000
      51 -> 56         0.16949
      51 -> 57         0.13903
      52 -> 55         0.25177
      52 -> 56        -0.10672
      53 -> 54         0.13482
      53 -> 55         0.15218
      53 -> 56         0.43756
      53 -> 58         0.15622
      53 -> 59         0.27684

 Excited State  10:      Singlet-A      8.4635 eV  146.49 nm  f=0.0034  <S**2>=0.000
      52 -> 54        -0.12103
      52 -> 55         0.56268
      52 -> 56        -0.26219
      53 -> 56        -0.16866
      53 -> 59        -0.11752

 The electronic state is 1-A.
 Alpha  occ. eigenvalues --  -19.15235 -19.15215 -19.15068 -14.31043 -14.31016
 Alpha  occ. eigenvalues --  -10.23267 -10.23168 -10.22989 -10.22956 -10.22772
 Alpha  occ. eigenvalues --  -10.22647 -10.20551 -10.20437  -1.03972  -1.02997
 Alpha  occ. eigenvalues --   -1.02241  -0.87580  -0.87544  -0.77262  -0.74362
 Alpha  occ. eigenvalues --   -0.71607  -0.69213  -0.63796  -0.61699  -0.58957
 Alpha  occ. eigenvalues --   -0.57952  -0.51337  -0.50401  -0.50065  -0.48777
 Alpha  occ. eigenvalues --   -0.47945  -0.47592  -0.45941  -0.45489  -0.44407
 Alpha  occ. eigenvalues --   -0.43486  -0.42489  -0.40828  -0.40250  -0.39394
 Alpha  occ. eigenvalues --   -0.38671  -0.36401  -0.35917  -0.35397  -0.34778
 Alpha  occ. eigenvalues --   -0.33405  -0.31582  -0.30702  -0.28280  -0.25825
 Alpha  occ. eigenvalues --   -0.25005  -0.23962  -0.23213
 Alpha virt. eigenvalues --    0.07541   0.08323   0.09771   0.11170   0.11353
 Alpha virt. eigenvalues --    0.11753   0.12666   0.13068   0.13365   0.14213
 Alpha virt. eigenvalues --    0.14556   0.14965   0.15834   0.16648   0.16903

 Mulliken charges:
               1
     1  N   -0.312416
     2  C   -0.073009
     3  C    0.009527
     4  O   -0.362250
     5  C   -0.036404
     6  C    0.012892
     7  O   -0.462569
     8  C    0.037369
     9  C    0.045838
    10  O   -0.505943
    11  C    0.066160
    12  C   -0.080724
    13  N   -0.633053
    14  H    0.141462
    15  H    0.123122
    16  H    0.097375
    17  H    0.100314
    18  H    0.100030
    19  H    0.089126
    20  H    0.098135
    21  H    0.065299
    22  H    0.103645
    23  H    0.101682
    24  H    0.091769
    25  H    0.095292
    26  H    0.088846
    27  H    0.110626
    28  H    0.084210
    29  H    0.084899
    30  H    0.109633
    31  H    0.109578
    32  H    0.251339
    33  H    0.248199
 Sum of Mulliken charges =  -0.00000

 Dipole moment (field-independent basis, Debye):
    X=             -3.0016    Y=              1.4123    Z=             -2.1009  Tot=              3.9266
 Quadrupole moment (field-independent basis, Debye-Ang):
   XX=            -88.6376   YY=            -79.1754   ZZ=            -82.5083
   XY=             16.2392   XZ=            -12.1348   YZ=              0.6940

 Summary of Natural Population Analysis:

                                       Natural Population
                Natural  -----------------------------------------------
    Atom  No    Charge         Core      Valence    Rydberg      Total
 -----------------------------------------------------------------------
      N    1   -0.61308      1.99949     5.59656    0.01703     7.61308
      C    2   -0.34164      1.99933     4.32309    0.01921     6.34164
      C    3   -0.17241      1.99923     4.14970    0.02348     6.17241
      O    4   -0.48255      1.99982     6.46674    0.01599     8.48255
      C    5   -0.22821      1.99929     4.19284    0.03608     6.22821
      C    6   -0.16928      1.99926     4.14106    0.02896     6.16928
      O    7   -0.56695      1.99980     6.55231    0.01485     8.56695
      C    8   -0.15623      1.99926     4.13981    0.01717     6.15623
      C    9   -0.12855      1.99926     4.10908    0.02021     6.12855
      O   10   -0.60450      1.99979     6.59177    0.01294     8.60450
      C   11   -0.13153      1.99926     4.11605    0.01623     6.13153
      C   12   -0.28990      1.99935     4.27401    0.01653     6.28990
      N   13   -0.92556      1.99971     5.91040    0.01546     7.92556
      H   14    0.30063      0.00000     0.64775    0.05162     0.69937
      H   15    0.29281      0.00000     0.65601    0.05118     0.70719
      H   16    0.22156      0.00000     0.76009    0.01836     0.77844
      H   17    0.22921      0.00000     0.74871    0.02209     0.77079
      H   18    0.22480      0.00000     0.75890    0.01630     0.77520
      H   19    0.20513      0.00000     0.77447    0.02040     0.79487
      H   20    0.22174      0.00000     0.77155    0.00671     0.77826
      H   21    0.18289      0.00000     0.79833    0.01878     0.81711
      H   22    0.22692      0.00000     0.76757    0.00552     0.77308
      H   23    0.21253      0.00000     0.78434    0.00312     0.78747
      H   24    0.20367      0.00000     0.79099    0.00534     0.79633
      H   25    0.21394      0.00000     0.78148    0.00458     0.78606
      H   26    0.20543      0.00000     0.79016    0.00441     0.79457
      H   27    0.23255      0.00000     0.76502    0.00243     0.76745
      H   28    0.19896      0.00000     0.79690    0.00414     0.80104
      H   29    0.20278      0.00000     0.79216    0.00507     0.79722
      H   30    0.23610      0.00000     0.76205    0.00185     0.76390
      H   31    0.22888      0.00000     0.76846    0.00266     0.77112
      H   32    0.38741      0.00000     0.60842    0.00417     0.61259
      H   33    0.38246      0.00000     0.61436    0.00317     0.61754
 =======================================================================
   * Total *   -0.00000     25.99285    79.50113    0.50602   106.00000

 Normal termination of Gaussian 16 at Thu Jul 18 16:07:58 2024.
