 Gaussian 16, Revision A.03,

 -------------------------------------------------------
 # opt=CalcFc B3LYP/6-31G** SCRF=(Solvent=water) scf=xqc
 -------------------------------------------------------

 ----------------------------------
 NIQFAJBKEHPUAM-UHFFFAOYSA-N_conf_1
 ----------------------------------
 Symbolic Z-matrix:
 Charge =  0 Multiplicity = 1

 SCF Done:  E(RB3LYP) =  -652.044909573     A.U. after   11 cycles
 SCF Done:  E(RB3LYP) =  -652.047998205     A.U. after   10 cycles
 SCF Done:  E(RB3LYP) =  -652.048280732     A.U. after   10 cycles
 SCF Done:  E(RB3LYP) =  -652.048295597     A.U. after    9 cycles
 SCF Done:  E(RB3LYP) =  -652.048294341     A.U. after    8 cycles
 SCF Done:  E(RB3LYP) =  -652.048295303     A.U. after    9 cycles
 SCF Done:  E(RB3LYP) =  -652.048295652     A.U. after    8 cycles
 SCF Done:  E(RB3LYP) =  -652.048295399     A.U. after    8 cycles
 SCF Done:  E(RB3LYP) =  -652.048299135     A.U. after    9 cycles
 SCF Done:  E(RB3LYP) =  -652.048295410     A.U. after    9 cycles
 SCF Done:  E(RB3LYP) =  -652.048303773     A.U. after    9 cycles
 SCF Done:  E(RB3LYP) =  -652.048305403     A.U. after    7 cycles
 SCF Done:  E(RB3LYP) =  -652.048304874     A.U. after    8 cycles
 SCF Done:  E(RB3LYP) =  -652.048223155     A.U. after   10 cycles
 SCF Done:  E(RB3LYP) =  -652.048302715     A.U. after    9 cycles
 SCF Done:  E(RB3LYP) =  -652.048305690     A.U. after    8 cycles
 SCF Done:  E(RB3LYP) =  -652.048305770     A.U. after    7 cycles
 SCF Done:  E(RB3LYP) =  -652.048305780     A.U. after    6 cycles
 Optimization completed.
    -- Stationary point found.
 Normal termination of Gaussian 16 at Thu Jul 18 15:11:42 2024.

 ----------------------------------------------------------------------
 # freq B3LYP/6-31G** SCRF=(Solvent=water) volume NMR pop=NPA density=c
 urrent Geom=AllCheck Guess=Read
 ----------------------------------------------------------------------

 Structure from the checkpoint file:  "NIQFAJBKEHPUAM-UHFFFAOYSA-N_conf_1_1.chk"
 ----------------------------------
 NIQFAJBKEHPUAM-UHFFFAOYSA-N_conf_1
 ----------------------------------
 Charge =  0 Multiplicity = 1

 SCF Done:  E(RB3LYP) =  -652.048305780     A.U. after    1 cycles

      1  N    Isotropic =   244.7411   Anisotropy =    24.6486

      2  C    Isotropic =   150.6591   Anisotropy =    39.4726

      3  C    Isotropic =   117.7679   Anisotropy =    74.9948

      4  O    Isotropic =   292.0972   Anisotropy =    46.8854

      5  C    Isotropic =   122.3722   Anisotropy =    56.2372

      6  C    Isotropic =   121.2744   Anisotropy =    56.8335

      7  O    Isotropic =   304.9846   Anisotropy =    40.0200

      8  C    Isotropic =   125.4683   Anisotropy =    75.7371

      9  C    Isotropic =   124.6709   Anisotropy =    78.3268

     10  O    Isotropic =   306.1445   Anisotropy =    36.7279

     11  C    Isotropic =   117.7864   Anisotropy =    51.9326

     12  C    Isotropic =   147.4941   Anisotropy =    25.8225

     13  N    Isotropic =   240.5696   Anisotropy =    39.1809

     14  H    Isotropic =    31.5802   Anisotropy =    14.0383

     15  H    Isotropic =    31.6545   Anisotropy =    14.0445

     16  H    Isotropic =    28.8170   Anisotropy =     6.2403

     17  H    Isotropic =    29.3461   Anisotropy =     5.7261

     18  H    Isotropic =    28.6933   Anisotropy =     5.1156

     19  H    Isotropic =    28.1960   Anisotropy =     6.1255

     20  H    Isotropic =    27.8165   Anisotropy =     5.9454

     21  H    Isotropic =    28.6291   Anisotropy =     5.7838

     22  H    Isotropic =    28.0760   Anisotropy =     5.3666

     23  H    Isotropic =    28.2547   Anisotropy =     5.7212

     24  H    Isotropic =    28.1234   Anisotropy =     6.5123

     25  H    Isotropic =    28.0783   Anisotropy =     6.0120

     26  H    Isotropic =    28.0144   Anisotropy =     6.0109

     27  H    Isotropic =    28.1390   Anisotropy =     6.2740

     28  H    Isotropic =    27.9613   Anisotropy =     4.9417

     29  H    Isotropic =    28.7923   Anisotropy =     6.0109

     30  H    Isotropic =    29.1038   Anisotropy =     7.5423

     31  H    Isotropic =    29.3140   Anisotropy =     7.8675

     32  H    Isotropic =    30.5362   Anisotropy =    11.4689

     33  H    Isotropic =    31.8085   Anisotropy =    13.8801

  Exact polarizability: 159.871  -0.451 127.865   0.429  -0.842 130.846
 Approx polarizability: 154.424  -0.464 141.836  -0.072  -1.880 145.428

                      1                      2                      3
                      A                      A                      A
 Frequencies --     12.4079                18.1421                28.1979
 Red. masses --      4.4819                 4.4453                 3.3151
 Frc consts  --      0.0004                 0.0009                 0.0016
 IR Inten    --      0.1397                 0.1314                 0.4478

                      4                      5                      6
                      A                      A                      A
 Frequencies --     38.0436                65.8732                86.8193
 Red. masses --      3.5735                 2.2187                 3.3512
 Frc consts  --      0.0030                 0.0057                 0.0149
 IR Inten    --      1.4535                 3.2692                 0.6522

                      7                      8                      9
                      A                      A                      A
 Frequencies --     93.8978               104.2489               127.6886
 Red. masses --      2.6540                 3.2547                 4.6132
 Frc consts  --      0.0138                 0.0208                 0.0443
 IR Inten    --      0.4077                 2.0218                 2.1602

                     10                     11                     12
                      A                      A                      A
 Frequencies --    159.7872               236.2121               262.5040
 Red. masses --      3.0070                 1.5632                 1.9833
 Frc consts  --      0.0452                 0.0514                 0.0805
 IR Inten    --      3.9532                21.8766                 6.8527

                     13                     14                     15
                      A                      A                      A
 Frequencies --    279.3176               287.0162               294.4372
 Red. masses --      3.4434                 3.8251                 1.6871
 Frc consts  --      0.1583                 0.1857                 0.0862
 IR Inten    --     26.3152                23.2095                35.9537

                     16                     17                     18
                      A                      A                      A
 Frequencies --    306.4525               321.1278               337.9894
 Red. masses --      1.5776                 2.1811                 1.4109
 Frc consts  --      0.0873                 0.1325                 0.0950
 IR Inten    --     35.3006                 5.2704                64.4925

                     19                     20                     21
                      A                      A                      A
 Frequencies --    348.8999               418.3404               492.5115
 Red. masses --      2.9009                 3.3884                 3.2765
 Frc consts  --      0.2081                 0.3494                 0.4683
 IR Inten    --      2.8123                10.1451                 3.8065

                     22                     23                     24
                      A                      A                      A
 Frequencies --    574.1775               621.3328               778.6769
 Red. masses --      2.9667                 2.5873                 1.1227
 Frc consts  --      0.5763                 0.5885                 0.4011
 IR Inten    --      7.6921                 7.5502                 3.5322

                     25                     26                     27
                      A                      A                      A
 Frequencies --    792.3604               816.1635               866.7904
 Red. masses --      1.2241                 1.5874                 2.1659
 Frc consts  --      0.4528                 0.6230                 0.9588
 IR Inten    --     10.2462                15.1091                27.1773

                     28                     29                     30
                      A                      A                      A
 Frequencies --    873.3863               894.8855               898.6574
 Red. masses --      2.3421                 2.6595                 1.6623
 Frc consts  --      1.0526                 1.2548                 0.7909
 IR Inten    --     35.5721                44.3959               243.7356

                     31                     32                     33
                      A                      A                      A
 Frequencies --    942.5260               993.6737              1005.8586
 Red. masses --      1.4308                 1.7581                 1.2268
 Frc consts  --      0.7489                 1.0228                 0.7313
 IR Inten    --    197.8448                29.2589                 0.3555

                     34                     35                     36
                      A                      A                      A
 Frequencies --   1039.4940              1043.0580              1048.9151
 Red. masses --      3.2179                 4.0234                 3.5658
 Frc consts  --      2.0486                 2.5790                 2.3114
 IR Inten    --     10.8958                 5.5805                54.8379

                     37                     38                     39
                      A                      A                      A
 Frequencies --   1054.0709              1063.1633              1108.8735
 Red. masses --      2.5504                 2.3424                 2.7675
 Frc consts  --      1.6696                 1.5599                 2.0050
 IR Inten    --     83.2073                33.0520                 8.0643

                     40                     41                     42
                      A                      A                      A
 Frequencies --   1119.1364              1126.7495              1138.5611
 Red. masses --      5.1901                 2.2297                 4.3106
 Frc consts  --      3.8299                 1.6678                 3.2923
 IR Inten    --    543.5353                31.8522               120.6459

                     43                     44                     45
                      A                      A                      A
 Frequencies --   1144.7181              1152.4578              1182.4089
 Red. masses --      2.1825                 4.2493                 1.7372
 Frc consts  --      1.6850                 3.3252                 1.4310
 IR Inten    --     12.4257                94.0751                24.2298

                     46                     47                     48
                      A                      A                      A
 Frequencies --   1221.8459              1241.0427              1258.7480
 Red. masses --      1.5113                 1.5022                 1.1440
 Frc consts  --      1.3293                 1.3632                 1.0680
 IR Inten    --      2.3617                21.2226                11.8891

                     49                     50                     51
                      A                      A                      A
 Frequencies --   1280.5295              1297.6875              1309.2293
 Red. masses --      1.1596                 1.2480                 1.1420
 Frc consts  --      1.1203                 1.2383                 1.1533
 IR Inten    --      5.2401                27.9228                21.0231

                     52                     53                     54
                      A                      A                      A
 Frequencies --   1331.5285              1334.4711              1349.8080
 Red. masses --      1.0931                 1.1347                 1.2140
 Frc consts  --      1.1418                 1.1905                 1.3032
 IR Inten    --     20.4236                13.3889                15.8213

                     55                     56                     57
                      A                      A                      A
 Frequencies --   1356.2986              1390.4302              1395.3697
 Red. masses --      1.2112                 1.2044                 1.2532
 Frc consts  --      1.3127                 1.3719                 1.4377
 IR Inten    --     25.3960                 0.8175                 7.3651

                     58                     59                     60
                      A                      A                      A
 Frequencies --   1398.7879              1406.2965              1419.3506
 Red. masses --      1.2203                 1.2572                 1.3348
 Frc consts  --      1.4067                 1.4649                 1.5843
 IR Inten    --      4.0887                29.4856                19.8159

                     61                     62                     63
                      A                      A                      A
 Frequencies --   1429.7506              1440.7796              1453.8331
 Red. masses --      1.3209                 1.3625                 1.5214
 Frc consts  --      1.5909                 1.6664                 1.8946
 IR Inten    --      4.9016                 2.3764                 2.7279

                     64                     65                     66
                      A                      A                      A
 Frequencies --   1486.0288              1492.0218              1498.5098
 Red. masses --      1.0919                 1.0870                 1.0841
 Frc consts  --      1.4207                 1.4257                 1.4344
 IR Inten    --      1.8614                 0.8875                 1.3963

                     67                     68                     69
                      A                      A                      A
 Frequencies --   1509.2127              1512.1642              1517.2174
 Red. masses --      1.0867                 1.0841                 1.0924
 Frc consts  --      1.4583                 1.4606                 1.4815
 IR Inten    --      6.0315                10.9610                 8.9106

                     70                     71                     72
                      A                      A                      A
 Frequencies --   1520.7353              1525.2225              1660.0403
 Red. masses --      1.0981                 1.0920                 1.0889
 Frc consts  --      1.4962                 1.4967                 1.7680
 IR Inten    --      1.9451                 8.8543                32.9435

                     73                     74                     75
                      A                      A                      A
 Frequencies --   1662.5288              2980.0185              2984.3279
 Red. masses --      1.0868                 1.0567                 1.0644
 Frc consts  --      1.7698                 5.5290                 5.5853
 IR Inten    --     32.4663                60.6675                59.2940

                     76                     77                     78
                      A                      A                      A
 Frequencies --   2989.6679              2997.7799              3011.8936
 Red. masses --      1.0598                 1.0584                 1.0694
 Frc consts  --      5.5811                 5.6043                 5.7155
 IR Inten    --     42.3181                79.2662                72.8807

                     79                     80                     81
                      A                      A                      A
 Frequencies --   3015.7626              3023.2128              3032.1228
 Red. masses --      1.0791                 1.0835                 1.1000
 Frc consts  --      5.7821                 5.8344                 5.9583
 IR Inten    --     38.0015               101.6745                55.0990

                     82                     83                     84
                      A                      A                      A
 Frequencies --   3040.6017              3045.8843              3048.1951
 Red. masses --      1.0989                 1.0654                 1.0651
 Frc consts  --      5.9856                 5.8234                 5.8307
 IR Inten    --     82.9830                95.2641               102.8143

                     85                     86                     87
                      A                      A                      A
 Frequencies --   3064.4276              3080.9719              3089.9355
 Red. masses --      1.0964                 1.0957                 1.1043
 Frc consts  --      6.0660                 6.1279                 6.2119
 IR Inten    --     26.7865                17.1279                59.1505

                     88                     89                     90
                      A                      A                      A
 Frequencies --   3094.4969              3098.4453              3473.8825
 Red. masses --      1.1072                 1.1044                 1.0503
 Frc consts  --      6.2468                 6.2470                 7.4675
 IR Inten    --     94.4985                97.8774                 1.3100

                     91                     92                     93
                      A                      A                      A
 Frequencies --   3475.0943              3552.0322              3554.3909
 Red. masses --      1.0499                 1.0910                 1.0921
 Frc consts  --      7.4703                 8.1102                 8.1293
 IR Inten    --      0.6928                 0.8746                 0.0069

 - Thermochemistry -
 -------------------
 Temperature   298.150 Kelvin.  Pressure   1.00000 Atm.
 Atom     1 has atomic number  7 and mass  14.00307

 Molecular mass:   192.14739 amu.
 Principal axes and moments of inertia in atomic units:
                           1         2         3
     Eigenvalues --   521.45117********************
           X            1.00000  -0.00243  -0.00080
           Y            0.00243   0.99997  -0.00749
           Z            0.00082   0.00749   0.99997
 This molecule is an asymmetric top.
 Rotational symmetry number  1.
 Warning -- assumption of classical behavior for rotation
           may cause significant error
 Rotational temperatures (Kelvin)      0.16610     0.00790     0.00779
 Rotational constants (GHZ):           3.46100     0.16468     0.16237
 Zero-point vibrational energy     777289.3 (Joules/Mol)
                                  185.77660 (Kcal/Mol)
 Warning -- explicit consideration of  22 degrees of freedom as
           vibrations may cause significant error
 Vibrational temperatures:     17.85    26.10    40.57    54.74    94.78
          (Kelvin)            124.91   135.10   149.99   183.72   229.90
                              339.86   377.68   401.88   412.95   423.63
                              440.92   462.03   486.29   501.99   601.90
                              708.61   826.11   893.96  1120.34  1140.03
                             1174.28  1247.12  1256.61  1287.54  1292.97
                             1356.08  1429.67  1447.21  1495.60  1500.73
                             1509.15  1516.57  1529.65  1595.42  1610.19
                             1621.14  1638.14  1646.99  1658.13  1701.22
                             1757.96  1785.58  1811.06  1842.40  1867.08
                             1883.69  1915.77  1920.01  1942.07  1951.41
                             2000.52  2007.63  2012.54  2023.35  2042.13
                             2057.09  2072.96  2091.74  2138.06  2146.69
                             2156.02  2171.42  2175.67  2182.94  2188.00
                             2194.46  2388.43  2392.01  4287.58  4293.78
                             4301.47  4313.14  4333.44  4339.01  4349.73
                             4362.55  4374.75  4382.35  4385.67  4409.03
                             4432.83  4445.73  4452.29  4457.97  4998.14
                             4999.89  5110.58  5113.98

 Zero-point correction=                           0.296054 (Hartree/Particle)
 Thermal correction to Energy=                    0.312572
 Thermal correction to Enthalpy=                  0.313516
 Thermal correction to Gibbs Free Energy=         0.247606
 Sum of electronic and zero-point Energies=           -651.752252
 Sum of electronic and thermal Energies=              -651.735734
 Sum of electronic and thermal Enthalpies=            -651.734790
 Sum of electronic and thermal Free Energies=         -651.800700

                     E (Thermal)             CV                S
                      KCal/Mol        Cal/Mol-Kelvin    Cal/Mol-Kelvin
 Total                  196.142             57.024            138.719
 Electronic               0.000              0.000              0.000
 Translational            0.889              2.981             41.665
 Rotational               0.889              2.981             32.518
 Vibrational            194.364             51.062             64.536
 Vibration     1          0.593              1.987              7.582
 Vibration     2          0.593              1.986              6.828
 Vibration     3          0.593              1.984              5.952
 Vibration     4          0.594              1.982              5.358
 Vibration     5          0.597              1.971              4.273
 Vibration     6          0.601              1.958              3.730
 Vibration     7          0.603              1.954              3.577
 Vibration     8          0.605              1.946              3.373
 Vibration     9          0.611              1.926              2.981
 Vibration    10          0.622              1.892              2.552
 Vibration    11          0.655              1.785              1.831
 Vibration    12          0.670              1.742              1.645
 Vibration    13          0.680              1.712              1.538
 Vibration    14          0.684              1.698              1.491
 Vibration    15          0.689              1.684              1.448
 Vibration    16          0.697              1.661              1.381
 Vibration    17          0.707              1.633              1.304
 Vibration    18          0.718              1.600              1.222
 Vibration    19          0.726              1.577              1.171
 Vibration    20          0.781              1.430              0.898
 Vibration    21          0.848              1.267              0.677
 Vibration    22          0.930              1.087              0.496

 Optimization completed.
    -- Stationary point found.
 Normal termination of Gaussian 16 at Thu Jul 18 15:23:54 2024.
 Gaussian 16:  ES64L-G16RevA.03 25-Dec-2016

 ----------------------------------------------------------------------
 # TD(NStates=10, Root=1) B3LYP/6-31G** SCRF=(Solvent=water) volume pop
 =NPA density=current Geom=AllCheck Guess=Read
 ----------------------------------------------------------------------

 Structure from the checkpoint file:  "NIQFAJBKEHPUAM-UHFFFAOYSA-N_conf_1_2.chk"
 ----------------------------------
 NIQFAJBKEHPUAM-UHFFFAOYSA-N_conf_1
 ----------------------------------
 Charge =  0 Multiplicity = 1

                         Standard orientation:
 ---------------------------------------------------------------------
 Center     Atomic      Atomic             Coordinates (Angstroms)
 Number     Number       Type             X           Y           Z
 ---------------------------------------------------------------------
      1          7           0        6.371169   -0.936394   -0.090154
      2          6           0        4.917195   -0.809270    0.060313
      3          6           0        4.418413    0.638990    0.178721
      4          8           0        3.014571    0.742288    0.397134
      5          6           0        2.229972    0.620849   -0.781712
      6          6           0        0.774419    0.854433   -0.435605
      7          8           0        0.308152   -0.226578    0.364659
      8          6           0       -1.045143   -0.102048    0.786843
      9          6           0       -2.018264   -0.653344   -0.264517
     10          8           0       -3.362802   -0.650116    0.197673
     11          6           0       -4.044370    0.596414    0.065018
     12          6           0       -5.520707    0.349479    0.365771
     13          7           0       -6.189678   -0.606540   -0.523681
     14          1           0        6.832190   -0.474185    0.692441
     15          1           0        6.669699   -0.426076   -0.920087
     16          1           0        4.441925   -1.301315   -0.795750
     17          1           0        4.606045   -1.360523    0.955293
     18          1           0        4.712553    1.211074   -0.716399
     19          1           0        4.895114    1.113694    1.044724
     20          1           0        2.337873   -0.372839   -1.239507
     21          1           0        2.540261    1.368944   -1.528380
     22          1           0        0.203219    0.939416   -1.371516
     23          1           0        0.671612    1.804955    0.109803
     24          1           0       -1.279987    0.943591    1.031093
     25          1           0       -1.147481   -0.690482    1.704647
     26          1           0       -1.758000   -1.696885   -0.469679
     27          1           0       -1.933969   -0.093861   -1.207542
     28          1           0       -3.638483    1.350740    0.755809
     29          1           0       -3.923452    0.981707   -0.960483
     30          1           0       -5.607995   -0.018106    1.395673
     31          1           0       -6.050367    1.307950    0.323647
     32          1           0       -5.615882   -1.448058   -0.557870
     33          1           0       -6.173749   -0.236975   -1.473785
 ---------------------------------------------------------------------

 SCF Done:  E(RB3LYP) =  -652.048305780     A.U. after    1 cycles

 Excitation energies and oscillator strengths:

 Excited State   1:      Singlet-A      7.2734 eV  170.46 nm  f=0.0125  <S**2>=0.000
      53 -> 54         0.36024
      53 -> 55         0.55231
      53 -> 56        -0.18718
 This state for optimization and/or second-order correction.
 Total Energy, E(TD-HF/TD-DFT) =  -651.781014609
 Copying the excited state density for this state as the 1-particle RhoCI density.

 Excited State   2:      Singlet-A      7.5504 eV  164.21 nm  f=0.0167  <S**2>=0.000
      51 -> 54        -0.17244
      51 -> 58         0.12831
      52 -> 54         0.53766
      52 -> 55        -0.27699
      52 -> 56        -0.11995
      52 -> 58         0.10694
      53 -> 54        -0.17038

 Excited State   3:      Singlet-A      7.6408 eV  162.27 nm  f=0.0120  <S**2>=0.000
      51 -> 54         0.50204
      51 -> 55        -0.17439
      52 -> 54         0.12823
      52 -> 55        -0.16517
      52 -> 56        -0.14620
      52 -> 58         0.17880
      53 -> 54         0.23112
      53 -> 56         0.17325

 Excited State   4:      Singlet-A      7.7447 eV  160.09 nm  f=0.0383  <S**2>=0.000
      51 -> 54        -0.27983
      51 -> 55         0.13653
      53 -> 54         0.30452
      53 -> 56         0.39318
      53 -> 57        -0.32260

 Excited State   5:      Singlet-A      7.9495 eV  155.96 nm  f=0.0010  <S**2>=0.000
      49 -> 54        -0.10749
      51 -> 55         0.32056
      51 -> 56         0.40380
      51 -> 57         0.13414
      52 -> 54        -0.10561
      52 -> 55        -0.18706
      52 -> 56        -0.26057
      53 -> 55         0.13114
      53 -> 56         0.13619
      53 -> 57         0.15505

 Excited State   6:      Singlet-A      8.0984 eV  153.10 nm  f=0.0022  <S**2>=0.000
      51 -> 54        -0.12525
      53 -> 54         0.38976
      53 -> 55        -0.22066
      53 -> 56        -0.10073
      53 -> 57         0.48366

 Excited State   7:      Singlet-A      8.2765 eV  149.80 nm  f=0.0088  <S**2>=0.000
      50 -> 55        -0.10221
      51 -> 56        -0.11039
      52 -> 55         0.12535
      52 -> 56         0.16220
      53 -> 54        -0.14791
      53 -> 55         0.28957
      53 -> 56         0.44598
      53 -> 57         0.30502

 Excited State   8:      Singlet-A      8.3431 eV  148.61 nm  f=0.0095  <S**2>=0.000
      51 -> 54         0.19296
      51 -> 55         0.15843
      51 -> 56         0.28531
      51 -> 57         0.10602
      52 -> 54         0.35639
      52 -> 55         0.31103
      52 -> 56         0.27749
      52 -> 58        -0.12718

 Excited State   9:      Singlet-A      8.4219 eV  147.22 nm  f=0.0010  <S**2>=0.000
      50 -> 54        -0.15159
      50 -> 55        -0.19425
      51 -> 54         0.20201
      51 -> 55         0.33504
      51 -> 56        -0.14848
      51 -> 57        -0.20123
      52 -> 55        -0.26488
      52 -> 56         0.24170
      52 -> 57         0.18360
      53 -> 56        -0.11980

 Excited State  10:      Singlet-A      8.4922 eV  146.00 nm  f=0.0121  <S**2>=0.000
      51 -> 55         0.10693
      51 -> 56        -0.21068
      51 -> 57         0.43794
      51 -> 58        -0.13645
      52 -> 55        -0.15745
      52 -> 56         0.20863
      52 -> 57        -0.34235

 The electronic state is 1-A.
 Alpha  occ. eigenvalues --  -19.15270 -19.15210 -19.14902 -14.31535 -14.31045
 Alpha  occ. eigenvalues --  -10.23308 -10.23208 -10.22994 -10.22966 -10.22747
 Alpha  occ. eigenvalues --  -10.22624 -10.20589 -10.20428  -1.03951  -1.03109
 Alpha  occ. eigenvalues --   -1.02198  -0.87897  -0.87610  -0.77592  -0.74506
 Alpha  occ. eigenvalues --   -0.71015  -0.68904  -0.63358  -0.61505  -0.59590
 Alpha  occ. eigenvalues --   -0.58599  -0.51150  -0.50325  -0.49977  -0.49497
 Alpha  occ. eigenvalues --   -0.48666  -0.46724  -0.46129  -0.45464  -0.44352
 Alpha  occ. eigenvalues --   -0.43453  -0.42667  -0.41008  -0.40164  -0.38397
 Alpha  occ. eigenvalues --   -0.38272  -0.37368  -0.36491  -0.35610  -0.34610
 Alpha  occ. eigenvalues --   -0.32149  -0.31393  -0.31294  -0.28053  -0.27217
 Alpha  occ. eigenvalues --   -0.24444  -0.23904  -0.23052
 Alpha virt. eigenvalues --    0.07797   0.08313   0.09056   0.09879   0.11022
 Alpha virt. eigenvalues --    0.12294   0.12663   0.12844   0.13583   0.13733
 Alpha virt. eigenvalues --    0.14664   0.15008   0.16319   0.16471   0.17314

 Mulliken charges:
               1
     1  N   -0.095231
     2  C   -0.139179
     3  C    0.034458
     4  O   -0.426491
     5  C    0.023519
     6  C    0.054598
     7  O   -0.511343
     8  C    0.040497
     9  C    0.046144
    10  O   -0.512172
    11  C    0.062410
    12  C   -0.081443
    13  N   -0.633107
    14  H   -0.039868
    15  H   -0.033931
    16  H    0.114253
    17  H    0.115965
    18  H    0.104457
    19  H    0.097671
    20  H    0.127268
    21  H    0.114910
    22  H    0.100516
    23  H    0.105855
    24  H    0.100419
    25  H    0.111655
    26  H    0.110748
    27  H    0.097291
    28  H    0.093675
    29  H    0.091635
    30  H    0.110994
    31  H    0.111637
    32  H    0.252668
    33  H    0.249519
 Sum of Mulliken charges =  -0.00000

 Dipole moment (field-independent basis, Debye):
    X=             -0.5732    Y=              2.6621    Z=             -2.9974  Tot=              4.0497
 Quadrupole moment (field-independent basis, Debye-Ang):
   XX=           -121.6994   YY=            -80.5053   ZZ=            -80.5057
   XY=             -7.0212   XZ=              0.4997   YZ=             -0.4305

 Summary of Natural Population Analysis:

                                       Natural Population
                Natural  -----------------------------------------------
    Atom  No    Charge         Core      Valence    Rydberg      Total
 -----------------------------------------------------------------------
      N    1   -0.51051      1.99942     5.48228    0.02881     7.51051
      C    2   -0.39685      1.99938     4.37163    0.02584     6.39685
      C    3   -0.16690      1.99917     4.13728    0.03046     6.16690
      O    4   -0.50205      1.99980     6.48776    0.01449     8.50205
      C    5   -0.14641      1.99924     4.12919    0.01798     6.14641
      C    6   -0.13221      1.99926     4.11565    0.01730     6.13221
      O    7   -0.59805      1.99980     6.58508    0.01318     8.59805
      C    8   -0.13760      1.99929     4.11918    0.01914     6.13760
      C    9   -0.13336      1.99929     4.11441    0.01966     6.13336
      O   10   -0.60606      1.99979     6.59354    0.01273     8.60606
      C   11   -0.12854      1.99926     4.11365    0.01563     6.12854
      C   12   -0.29086      1.99935     4.27497    0.01654     6.29086
      N   13   -0.92517      1.99971     5.90999    0.01547     7.92517
      H   14    0.17710      0.00000     0.73990    0.08300     0.82290
      H   15    0.18172      0.00000     0.73624    0.08204     0.81828
      H   16    0.23625      0.00000     0.74897    0.01479     0.76375
      H   17    0.23832      0.00000     0.74524    0.01643     0.76168
      H   18    0.21713      0.00000     0.77062    0.01225     0.78287
      H   19    0.22451      0.00000     0.75685    0.01864     0.77549
      H   20    0.22972      0.00000     0.76739    0.00290     0.77028
      H   21    0.22484      0.00000     0.77154    0.00363     0.77516
      H   22    0.21350      0.00000     0.78216    0.00434     0.78650
      H   23    0.21512      0.00000     0.78136    0.00352     0.78488
      H   24    0.20616      0.00000     0.79135    0.00249     0.79384
      H   25    0.22837      0.00000     0.76910    0.00253     0.77163
      H   26    0.22807      0.00000     0.76949    0.00244     0.77193
      H   27    0.20334      0.00000     0.79364    0.00302     0.79666
      H   28    0.20898      0.00000     0.78814    0.00289     0.79102
      H   29    0.20288      0.00000     0.79405    0.00307     0.79712
      H   30    0.22964      0.00000     0.76776    0.00260     0.77036
      H   31    0.23750      0.00000     0.76076    0.00174     0.76250
      H   32    0.38812      0.00000     0.60790    0.00398     0.61188
      H   33    0.38331      0.00000     0.61374    0.00295     0.61669
 =======================================================================
   * Total *   -0.00000     25.99275    79.49078    0.51647   106.00000

 Normal termination of Gaussian 16 at Thu Jul 18 15:38:27 2024.
