 Gaussian 16, Revision A.03,

 -------------------------------------------------------
 # opt=CalcFc B3LYP/6-31G** SCRF=(Solvent=water) scf=xqc
 -------------------------------------------------------

 ----------------------------------
 NKYXYJFTTIPZDE-UHFFFAOYSA-N_conf_3
 ----------------------------------
 Symbolic Z-matrix:
 Charge =  0 Multiplicity = 1

 SCF Done:  E(RB3LYP) =  -1323.32036344     A.U. after   13 cycles
 SCF Done:  E(RB3LYP) =  -1323.32478051     A.U. after   11 cycles
 SCF Done:  E(RB3LYP) =  -1323.32483814     A.U. after   10 cycles
 SCF Done:  E(RB3LYP) =  -1323.32475504     A.U. after   10 cycles
 SCF Done:  E(RB3LYP) =  -1323.32491414     A.U. after   10 cycles
 SCF Done:  E(RB3LYP) =  -1323.32492404     A.U. after    9 cycles
 SCF Done:  E(RB3LYP) =  -1323.32492702     A.U. after    8 cycles
 SCF Done:  E(RB3LYP) =  -1323.32492820     A.U. after    8 cycles
 SCF Done:  E(RB3LYP) =  -1323.32492823     A.U. after    7 cycles
 Optimization completed.
    -- Stationary point found.
 Normal termination of Gaussian 16 at Thu Jul 18 16:11:39 2024.

 ----------------------------------------------------------------------
 # freq B3LYP/6-31G** SCRF=(Solvent=water) volume NMR pop=NPA density=c
 urrent Geom=AllCheck Guess=Read
 ----------------------------------------------------------------------

 Structure from the checkpoint file:  "NKYXYJFTTIPZDE-UHFFFAOYSA-N_conf_3_1.chk"
 ----------------------------------
 NKYXYJFTTIPZDE-UHFFFAOYSA-N_conf_3
 ----------------------------------
 Charge =  0 Multiplicity = 1

 SCF Done:  E(RB3LYP) =  -1323.32492823     A.U. after    1 cycles

      1  N    Isotropic =   199.5967   Anisotropy =    72.9194

      2  C    Isotropic =    53.0913   Anisotropy =   156.9080

      3  C    Isotropic =    78.0254   Anisotropy =   135.4260

      4  C    Isotropic =    72.4778   Anisotropy =   151.4661

      5  C    Isotropic =    48.2942   Anisotropy =   103.8717

      6  O    Isotropic =   213.8164   Anisotropy =    74.8228

      7  C    Isotropic =    48.2626   Anisotropy =   103.9684

      8  C    Isotropic =    72.6008   Anisotropy =   151.4563

      9  C    Isotropic =    78.0083   Anisotropy =   135.3412

     10  C    Isotropic =    53.1205   Anisotropy =   156.9073

     11  N    Isotropic =   199.6205   Anisotropy =    73.1294

     12  C    Isotropic =    84.4209   Anisotropy =   127.6507

     13  C    Isotropic =    70.4270   Anisotropy =   128.7708

     14  C    Isotropic =    62.6103   Anisotropy =    11.3816

     15  F    Isotropic =   260.6317   Anisotropy =   132.5325

     16  F    Isotropic =   257.2467   Anisotropy =   125.9390

     17  F    Isotropic =   278.3635   Anisotropy =   121.0503

     18  C    Isotropic =    70.4596   Anisotropy =   128.8268

     19  C    Isotropic =    62.6138   Anisotropy =    11.3886

     20  F    Isotropic =   260.6208   Anisotropy =   132.3509

     21  F    Isotropic =   278.3744   Anisotropy =   121.0629

     22  F    Isotropic =   257.2110   Anisotropy =   125.9291

     23  C    Isotropic =    84.4288   Anisotropy =   127.6403

     24  H    Isotropic =    28.4547   Anisotropy =    12.6333

     25  H    Isotropic =    28.4266   Anisotropy =    12.2478

     26  H    Isotropic =    25.0206   Anisotropy =     6.1775

     27  H    Isotropic =    24.8511   Anisotropy =     9.2531

     28  H    Isotropic =    24.8214   Anisotropy =     9.2891

     29  H    Isotropic =    25.0024   Anisotropy =     6.1886

     30  H    Isotropic =    28.4194   Anisotropy =    12.1482

     31  H    Isotropic =    28.4538   Anisotropy =    12.5866

     32  H    Isotropic =    24.9230   Anisotropy =     8.8675

     33  H    Isotropic =    24.9237   Anisotropy =     8.8598

  Exact polarizability: 301.289  -9.644 182.346   0.395   0.049 164.866
 Approx polarizability: 344.349   1.946 223.866  -1.097  -0.194 210.981

                      1                      2                      3
                      A                      A                      A
 Frequencies --     27.5605                28.8218                40.0599
 Red. masses --      8.2432                 8.7990                10.4050
 Frc consts  --      0.0037                 0.0043                 0.0098
 IR Inten    --      3.8902                 1.3431                 0.8732

                      4                      5                      6
                      A                      A                      A
 Frequencies --     46.9593                49.0190                99.9272
 Red. masses --     12.5638                 7.8346                10.8564
 Frc consts  --      0.0163                 0.0111                 0.0639
 IR Inten    --      0.9152                 0.8802                 0.2580

                      7                      8                      9
                      A                      A                      A
 Frequencies --    112.7270               120.3847               137.5165
 Red. masses --      4.7736                 5.3166                 7.5300
 Frc consts  --      0.0357                 0.0454                 0.0839
 IR Inten    --      0.8072                 1.0229                 2.6475

                     10                     11                     12
                      A                      A                      A
 Frequencies --    159.9870               182.1433               250.5599
 Red. masses --      6.2548                 8.0951                 6.9742
 Frc consts  --      0.0943                 0.1582                 0.2580
 IR Inten    --      2.0203                 0.2753                 2.1575

                     13                     14                     15
                      A                      A                      A
 Frequencies --    276.1029               288.1088               313.8863
 Red. masses --      7.3580                 8.1529                 6.3400
 Frc consts  --      0.3305                 0.3987                 0.3680
 IR Inten    --      6.0513                 5.1834                 2.5173

                     16                     17                     18
                      A                      A                      A
 Frequencies --    316.2462               316.6989               323.9602
 Red. masses --      4.9223                 1.0613                 1.1284
 Frc consts  --      0.2900                 0.0627                 0.0698
 IR Inten    --      4.5555                30.6587                28.1020

                     19                     20                     21
                      A                      A                      A
 Frequencies --    344.8187               364.4038               368.6005
 Red. masses --      9.6385                 5.7314                 6.1825
 Frc consts  --      0.6752                 0.4484                 0.4949
 IR Inten    --      6.1756                 1.4515                 2.6015

                     22                     23                     24
                      A                      A                      A
 Frequencies --    383.8297               397.7496               452.1564
 Red. masses --      5.6920                 4.9887                 4.3907
 Frc consts  --      0.4941                 0.4650                 0.5289
 IR Inten    --      2.7898                 8.4415                16.5473

                     25                     26                     27
                      A                      A                      A
 Frequencies --    462.1531               472.5422               487.8971
 Red. masses --      4.1664                 5.3455                 7.5161
 Frc consts  --      0.5243                 0.7033                 1.0541
 IR Inten    --     11.8459                 2.1075                40.0627

                     28                     29                     30
                      A                      A                      A
 Frequencies --    511.1336               513.2227               530.2209
 Red. masses --      8.1666                 7.7340                 4.3219
 Frc consts  --      1.2571                 1.2002                 0.7159
 IR Inten    --     22.7976                31.4169                58.7980

                     31                     32                     33
                      A                      A                      A
 Frequencies --    557.0794               580.3730               583.4492
 Red. masses --      4.7758                 2.6202                 2.2412
 Frc consts  --      0.8732                 0.5200                 0.4495
 IR Inten    --    102.3652               393.0008               323.1579

                     34                     35                     36
                      A                      A                      A
 Frequencies --    586.0083               626.5892               650.7224
 Red. masses --      1.8733                 5.1189                 4.2252
 Frc consts  --      0.3790                 1.1841                 1.0541
 IR Inten    --    274.1133                12.3569                75.0562

                     37                     38                     39
                      A                      A                      A
 Frequencies --    652.5089               673.9381               675.2124
 Red. masses --      3.8314                 8.1980                 8.4021
 Frc consts  --      0.9611                 2.1938                 2.2569
 IR Inten    --     61.7135                15.8850                22.0962

                     40                     41                     42
                      A                      A                      A
 Frequencies --    722.4188               725.4355               748.8885
 Red. masses --      5.0274                 5.4002                 8.3486
 Frc consts  --      1.5459                 1.6744                 2.7587
 IR Inten    --      7.8795                 1.7626                 4.6731

                     43                     44                     45
                      A                      A                      A
 Frequencies --    749.8836               779.2430               836.5132
 Red. masses --      9.1262                 4.2701                 1.5854
 Frc consts  --      3.0236                 1.5277                 0.6537
 IR Inten    --      5.0345                 1.2547                24.1759

                     46                     47                     48
                      A                      A                      A
 Frequencies --    849.5583               858.2726               880.1427
 Red. masses --      1.8106                 3.8195                 1.4647
 Frc consts  --      0.7700                 1.6577                 0.6685
 IR Inten    --     69.8973                97.9858                30.3745

                     49                     50                     51
                      A                      A                      A
 Frequencies --    881.0406               926.3320               928.6900
 Red. masses --      1.4694                 5.1836                 5.8185
 Frc consts  --      0.6720                 2.6207                 2.9567
 IR Inten    --     40.1716                34.9790                32.6255

                     52                     53                     54
                      A                      A                      A
 Frequencies --    955.6684               956.1018              1062.7403
 Red. masses --      1.2973                 1.2996                 3.5442
 Frc consts  --      0.6981                 0.6999                 2.3584
 IR Inten    --      0.8719                 2.6732                79.3899

                     55                     56                     57
                      A                      A                      A
 Frequencies --   1063.1765              1108.7407              1110.5314
 Red. masses --      3.4982                 1.5859                 1.5580
 Frc consts  --      2.3298                 1.1486                 1.1321
 IR Inten    --    149.0475                 5.5603                48.6717

                     58                     59                     60
                      A                      A                      A
 Frequencies --   1145.1204              1145.9676              1163.6564
 Red. masses --      6.5937                10.9737                 2.2301
 Frc consts  --      5.0943                 8.4908                 1.7792
 IR Inten    --    301.5260               363.2434               144.5433

                     61                     62                     63
                      A                      A                      A
 Frequencies --   1164.1847              1174.8692              1178.5084
 Red. masses --      1.9151                 2.5166                 2.3302
 Frc consts  --      1.5293                 2.0467                 1.9068
 IR Inten    --    246.2154                 7.7137               158.7401

                     64                     65                     66
                      A                      A                      A
 Frequencies --   1232.5759              1245.9012              1279.1978
 Red. masses --      2.5965                 2.2654                 3.0751
 Frc consts  --      2.3242                 2.0719                 2.9648
 IR Inten    --     51.5462               767.5051               176.0860

                     67                     68                     69
                      A                      A                      A
 Frequencies --   1282.8773              1297.2946              1298.2891
 Red. masses --      3.7073                 2.2508                 1.8774
 Frc consts  --      3.5948                 2.2319                 1.8644
 IR Inten    --    343.6486               142.5250                29.3982

                     70                     71                     72
                      A                      A                      A
 Frequencies --   1356.0186              1357.0729              1370.2292
 Red. masses --      3.1473                 3.1773                 6.9862
 Frc consts  --      3.4097                 3.4476                 7.7282
 IR Inten    --    206.7239               146.8505                97.4248

                     73                     74                     75
                      A                      A                      A
 Frequencies --   1374.4627              1490.9156              1494.7272
 Red. masses --      7.2358                 3.5958                 3.6881
 Frc consts  --      8.0539                 4.7093                 4.8548
 IR Inten    --     47.6549               192.4952                82.4512

                     76                     77                     78
                      A                      A                      A
 Frequencies --   1531.3853              1549.1409              1632.4695
 Red. masses --      2.9486                 3.1022                 6.8697
 Frc consts  --      4.0741                 4.3864                10.7865
 IR Inten    --    689.3187                52.5775                16.1191

                     79                     80                     81
                      A                      A                      A
 Frequencies --   1642.0524              1659.2544              1661.2161
 Red. masses --      7.1584                 1.5340                 1.3283
 Frc consts  --     11.3721                 2.4884                 2.1598
 IR Inten    --     14.6232                38.4441                33.6276

                     82                     83                     84
                      A                      A                      A
 Frequencies --   1672.6160              1675.9972              3190.8454
 Red. masses --      2.5876                 3.6049                 1.0900
 Frc consts  --      4.2653                 5.9661                 6.5385
 IR Inten    --    193.0951                32.5509                19.5387

                     85                     86                     87
                      A                      A                      A
 Frequencies --   3192.2533              3218.3939              3218.4833
 Red. masses --      1.0898                 1.0906                 1.0906
 Frc consts  --      6.5430                 6.6557                 6.6561
 IR Inten    --     17.9085                12.7731                 3.4361

                     88                     89                     90
                      A                      A                      A
 Frequencies --   3223.8326              3224.0168              3566.7903
 Red. masses --      1.0932                 1.0932                 1.0485
 Frc consts  --      6.6941                 6.6949                 7.8592
 IR Inten    --      0.9785                 2.9317                68.3525

                     91                     92                     93
                      A                      A                      A
 Frequencies --   3566.8696              3669.4862              3669.6081
 Red. masses --      1.0485                 1.0987                 1.0987
 Frc consts  --      7.8597                 8.7161                 8.7172
 IR Inten    --     26.7232                29.3966                29.3044

 - Thermochemistry -
 -------------------
 Temperature   298.150 Kelvin.  Pressure   1.00000 Atm.
 Atom     1 has atomic number  7 and mass  14.00307

 Molecular mass:   336.06973 amu.
 Principal axes and moments of inertia in atomic units:
                           1         2         3
     Eigenvalues --  4881.34212********************
           X            0.99927  -0.03813   0.00190
           Y            0.03812   0.99927   0.00191
           Z           -0.00197  -0.00184   1.00000
 This molecule is an asymmetric top.
 Rotational symmetry number  1.
 Warning -- assumption of classical behavior for rotation
           may cause significant error
 Rotational temperatures (Kelvin)      0.01774     0.00764     0.00742
 Rotational constants (GHZ):           0.36972     0.15911     0.15452
 Zero-point vibrational energy     597685.6 (Joules/Mol)
                                  142.85030 (Kcal/Mol)
 Warning -- explicit consideration of  34 degrees of freedom as
           vibrations may cause significant error
 Vibrational temperatures:     39.65    41.47    57.64    67.56    70.53
          (Kelvin)            143.77   162.19   173.21   197.86   230.19
                              262.06   360.50   397.25   414.52   451.61
                              455.01   455.66   466.11   496.12   524.30
                              530.33   552.25   572.27   650.55   664.94
                              679.88   701.98   735.41   738.41   762.87
                              801.51   835.03   839.45   843.14   901.52
                              936.24   938.81   969.65   971.48  1039.40
                             1043.74  1077.48  1078.92  1121.16  1203.56
                             1222.32  1234.86  1266.33  1267.62  1332.79
                             1336.18  1374.99  1375.62  1529.05  1529.67
                             1595.23  1597.81  1647.57  1648.79  1674.24
                             1675.00  1690.37  1695.61  1773.40  1792.57
                             1840.48  1845.77  1866.52  1867.95  1951.01
                             1952.53  1971.45  1977.55  2145.09  2150.58
                             2203.32  2228.87  2348.76  2362.55  2387.30
                             2390.12  2406.52  2411.39  4590.91  4592.94
                             4630.55  4630.68  4638.38  4638.64  5131.82
                             5131.93  5279.57  5279.75

 Zero-point correction=                           0.227646 (Hartree/Particle)
 Thermal correction to Energy=                    0.247780
 Thermal correction to Enthalpy=                  0.248724
 Thermal correction to Gibbs Free Energy=         0.177409
 Sum of electronic and zero-point Energies=          -1323.097282
 Sum of electronic and thermal Energies=             -1323.077149
 Sum of electronic and thermal Enthalpies=           -1323.076204
 Sum of electronic and thermal Free Energies=        -1323.147519

                     E (Thermal)             CV                S
                      KCal/Mol        Cal/Mol-Kelvin    Cal/Mol-Kelvin
 Total                  155.484             77.400            150.094
 Electronic               0.000              0.000              0.000
 Translational            0.889              2.981             43.331
 Rotational               0.889              2.981             34.824
 Vibrational            153.707             71.438             71.939
 Vibration     1          0.593              1.984              5.998
 Vibration     2          0.593              1.984              5.909
 Vibration     3          0.594              1.981              5.256
 Vibration     4          0.595              1.979              4.942
 Vibration     5          0.595              1.978              4.857
 Vibration     6          0.604              1.949              3.456
 Vibration     7          0.607              1.939              3.221
 Vibration     8          0.609              1.932              3.094
 Vibration     9          0.614              1.916              2.838
 Vibration    10          0.622              1.891              2.550
 Vibration    11          0.630              1.864              2.306
 Vibration    12          0.663              1.762              1.727
 Vibration    13          0.678              1.718              1.558
 Vibration    14          0.685              1.696              1.485
 Vibration    15          0.702              1.647              1.342
 Vibration    16          0.703              1.643              1.329
 Vibration    17          0.704              1.642              1.327
 Vibration    18          0.709              1.628              1.290
 Vibration    19          0.723              1.586              1.190
 Vibration    20          0.738              1.546              1.103
 Vibration    21          0.741              1.537              1.086
 Vibration    22          0.753              1.505              1.024
 Vibration    23          0.764              1.475              0.971
 Vibration    24          0.811              1.356              0.789
 Vibration    25          0.820              1.334              0.760
 Vibration    26          0.829              1.311              0.730
 Vibration    27          0.844              1.277              0.689
 Vibration    28          0.866              1.225              0.631
 Vibration    29          0.868              1.221              0.626
 Vibration    30          0.885              1.183              0.587
 Vibration    31          0.913              1.124              0.530
 Vibration    32          0.937              1.074              0.485
 Vibration    33          0.940              1.067              0.479
 Vibration    34          0.943              1.062              0.474

 Optimization completed.
    -- Stationary point found.
 Normal termination of Gaussian 16 at Thu Jul 18 16:41:33 2024.
 Gaussian 16:  ES64L-G16RevA.03 25-Dec-2016

 ----------------------------------------------------------------------
 # TD(NStates=10, Root=1) B3LYP/6-31G** SCRF=(Solvent=water) volume pop
 =NPA density=current Geom=AllCheck Guess=Read
 ----------------------------------------------------------------------

 Structure from the checkpoint file:  "NKYXYJFTTIPZDE-UHFFFAOYSA-N_conf_3_2.chk"
 ----------------------------------
 NKYXYJFTTIPZDE-UHFFFAOYSA-N_conf_3
 ----------------------------------
 Charge =  0 Multiplicity = 1

                         Standard orientation:
 ---------------------------------------------------------------------
 Center     Atomic      Atomic             Coordinates (Angstroms)
 Number     Number       Type             X           Y           Z
 ---------------------------------------------------------------------
      1          7           0       -4.605891    1.595782    2.111212
      2          6           0       -3.463642    1.222583    1.408319
      3          6           0       -2.226045    1.846822    1.653818
      4          6           0       -1.073914    1.434278    0.993774
      5          6           0       -1.123888    0.382324    0.079821
      6          8           0       -0.000395   -0.001699   -0.643297
      7          6           0        1.124946   -0.386042    0.076634
      8          6           0        1.075905   -1.431976    0.997484
      9          6           0        2.229194   -1.841779    1.657300
     10          6           0        3.467108   -1.221227    1.404243
     11          7           0        4.634109   -1.677813    2.010611
     12          6           0        3.504475   -0.170717    0.472448
     13          6           0        2.345621    0.249397   -0.182451
     14          6           0        2.403556    1.394848   -1.155008
     15          9           0        1.591353    2.417750   -0.782971
     16          9           0        2.022679    1.034002   -2.402348
     17          9           0        3.649216    1.910658   -1.261923
     18          6           0       -2.344737   -0.254827   -0.173891
     19          6           0       -2.405210   -1.400341   -1.146226
     20          9           0       -1.589252   -2.421334   -0.777712
     21          9           0       -3.650404   -1.918488   -1.247132
     22          9           0       -2.030997   -1.039012   -2.395526
     23          6           0       -3.502617    0.168371    0.480785
     24          1           0       -4.598790    2.543154    2.466401
     25          1           0       -5.481945    1.380861    1.652941
     26          1           0       -2.172159    2.669119    2.361532
     27          1           0       -0.130114    1.938350    1.168487
     28          1           0        0.130758   -1.929816    1.182524
     29          1           0        2.176164   -2.659544    2.370277
     30          1           0        5.382706   -0.999552    2.067866
     31          1           0        4.499600   -2.153602    2.893302
     32          1           0        4.443243    0.328737    0.261945
     33          1           0       -4.441679   -0.332357    0.274549
 ---------------------------------------------------------------------

 SCF Done:  E(RB3LYP) =  -1323.32492823     A.U. after    2 cycles

 Excitation energies and oscillator strengths:

 Excited State   1:      Singlet-A      4.0692 eV  304.69 nm  f=0.2475  <S**2>=0.000
      85 -> 86         0.69609
 This state for optimization and/or second-order correction.
 Total Energy, E(TD-HF/TD-DFT) =  -1323.17538625
 Copying the excited state density for this state as the 1-particle RhoCI density.

 Excited State   2:      Singlet-A      4.3288 eV  286.42 nm  f=0.0332  <S**2>=0.000
      84 -> 86         0.28392
      85 -> 87         0.62790

 Excited State   3:      Singlet-A      4.4314 eV  279.79 nm  f=0.0008  <S**2>=0.000
      84 -> 86         0.63550
      85 -> 87        -0.30066

 Excited State   4:      Singlet-A      4.6691 eV  265.54 nm  f=0.0565  <S**2>=0.000
      84 -> 87         0.69242

 Excited State   5:      Singlet-A      4.9209 eV  251.95 nm  f=0.3472  <S**2>=0.000
      85 -> 88         0.69676

 Excited State   6:      Singlet-A      5.0830 eV  243.92 nm  f=0.0048  <S**2>=0.000
      84 -> 88        -0.36023
      85 -> 89         0.60293

 Excited State   7:      Singlet-A      5.3695 eV  230.90 nm  f=0.3898  <S**2>=0.000
      84 -> 89         0.69375

 Excited State   8:      Singlet-A      5.4540 eV  227.33 nm  f=0.0903  <S**2>=0.000
      82 -> 86         0.18479
      83 -> 87         0.12063
      84 -> 88         0.57479
      85 -> 89         0.32951

 Excited State   9:      Singlet-A      5.9304 eV  209.07 nm  f=0.2387  <S**2>=0.000
      81 -> 86        -0.12318
      82 -> 87        -0.19257
      83 -> 86         0.65903

 Excited State  10:      Singlet-A      6.0243 eV  205.81 nm  f=0.0537  <S**2>=0.000
      82 -> 86         0.58539
      83 -> 87        -0.37907

 The electronic state is 1-A.
 Alpha  occ. eigenvalues --  -24.73046 -24.73044 -24.72545 -24.72542 -24.72396
 Alpha  occ. eigenvalues --  -24.72393 -19.19208 -14.34281 -14.34275 -10.43748
 Alpha  occ. eigenvalues --  -10.43747 -10.25635 -10.25635 -10.23957 -10.23951
 Alpha  occ. eigenvalues --  -10.21732 -10.21729 -10.20173 -10.20170 -10.20118
 Alpha  occ. eigenvalues --  -10.20113 -10.19860 -10.19853  -1.30364  -1.30361
 Alpha  occ. eigenvalues --   -1.21778  -1.21772  -1.21356  -1.21354  -1.08049
 Alpha  occ. eigenvalues --   -0.92413  -0.92336  -0.86614  -0.84821  -0.78367
 Alpha  occ. eigenvalues --   -0.78329  -0.75356  -0.72643  -0.70268  -0.69336
 Alpha  occ. eigenvalues --   -0.64237  -0.63306  -0.63241  -0.60695  -0.58275
 Alpha  occ. eigenvalues --   -0.58230  -0.58189  -0.57967  -0.57249  -0.56081
 Alpha  occ. eigenvalues --   -0.53824  -0.52193  -0.51974  -0.49326  -0.49142
 Alpha  occ. eigenvalues --   -0.46931  -0.46244  -0.46196  -0.45968  -0.45857
 Alpha  occ. eigenvalues --   -0.45497  -0.44576  -0.44453  -0.43740  -0.42277
 Alpha  occ. eigenvalues --   -0.42195  -0.41834  -0.41384  -0.40887  -0.40645
 Alpha  occ. eigenvalues --   -0.40057  -0.40041  -0.39707  -0.39522  -0.38686
 Alpha  occ. eigenvalues --   -0.37964  -0.37115  -0.35573  -0.33799  -0.31370
 Alpha  occ. eigenvalues --   -0.29432  -0.27034  -0.26719  -0.21435  -0.20264
 Alpha virt. eigenvalues --   -0.03076  -0.02020  -0.00002   0.00429   0.08263
 Alpha virt. eigenvalues --    0.08938   0.10530   0.11057   0.12761   0.12924
 Alpha virt. eigenvalues --    0.13397   0.13433   0.13749   0.14279   0.16313

 Mulliken charges:
               1
     1  N   -0.626104
     2  C    0.278310
     3  C   -0.157849
     4  C   -0.113703
     5  C    0.291649
     6  O   -0.571095
     7  C    0.291826
     8  C   -0.113331
     9  C   -0.157969
    10  C    0.278251
    11  N   -0.625277
    12  C   -0.164879
    13  C   -0.122149
    14  C    0.804445
    15  F   -0.278478
    16  F   -0.278330
    17  F   -0.281058
    18  C   -0.122197
    19  C    0.804334
    20  F   -0.278649
    21  F   -0.281097
    22  F   -0.278308
    23  C   -0.165195
    24  H    0.300910
    25  H    0.301738
    26  H    0.103160
    27  H    0.114233
    28  H    0.114472
    29  H    0.103866
    30  H    0.301937
    31  H    0.300955
    32  H    0.112773
    33  H    0.112809
 Sum of Mulliken charges =  -0.00000

 Dipole moment (field-independent basis, Debye):
    X=             -0.3857    Y=              1.5796    Z=              8.5208  Tot=              8.6746
 Quadrupole moment (field-independent basis, Debye-Ang):
   XX=            -75.7180   YY=           -122.5001   ZZ=           -120.4726
   XY=            -23.3430   XZ=              8.0416   YZ=              0.4618

 Summary of Natural Population Analysis:

                                       Natural Population
                Natural  -----------------------------------------------
    Atom  No    Charge         Core      Valence    Rydberg      Total
 -----------------------------------------------------------------------
      N    1   -0.76699      1.99949     5.75659    0.01092     7.76699
      C    2    0.18496      1.99899     3.79829    0.01776     5.81504
      C    3   -0.32552      1.99906     4.31068    0.01579     6.32552
      C    4   -0.27077      1.99902     4.25672    0.01504     6.27077
      C    5    0.32316      1.99865     3.65420    0.02399     5.67684
      O    6   -0.48519      1.99971     6.47333    0.01214     8.48519
      C    7    0.32388      1.99865     3.65344    0.02402     5.67612
      C    8   -0.27069      1.99902     4.25665    0.01502     6.27069
      C    9   -0.32530      1.99906     4.31045    0.01580     6.32530
      C   10    0.18502      1.99898     3.79820    0.01779     5.81498
      N   11   -0.76606      1.99949     5.75568    0.01090     7.76606
      C   12   -0.26685      1.99902     4.25249    0.01534     6.26685
      C   13   -0.25895      1.99877     4.24261    0.01757     6.25895
      C   14    1.11377      1.99907     2.81607    0.07109     4.88623
      F   15   -0.37609      1.99993     7.37011    0.00605     9.37609
      F   16   -0.37076      1.99993     7.36473    0.00610     9.37076
      F   17   -0.36953      1.99993     7.36372    0.00588     9.36953
      C   18   -0.25882      1.99877     4.24247    0.01758     6.25882
      C   19    1.11375      1.99907     2.81608    0.07110     4.88625
      F   20   -0.37590      1.99993     7.36992    0.00605     9.37590
      F   21   -0.36956      1.99993     7.36375    0.00588     9.36956
      F   22   -0.37095      1.99993     7.36492    0.00610     9.37095
      C   23   -0.26735      1.99902     4.25301    0.01533     6.26735
      H   24    0.42766      0.00000     0.56977    0.00257     0.57234
      H   25    0.42826      0.00000     0.56942    0.00232     0.57174
      H   26    0.24961      0.00000     0.74891    0.00148     0.75039
      H   27    0.26262      0.00000     0.73517    0.00221     0.73738
      H   28    0.26266      0.00000     0.73512    0.00222     0.73734
      H   29    0.25003      0.00000     0.74849    0.00148     0.74997
      H   30    0.42843      0.00000     0.56925    0.00232     0.57157
      H   31    0.42761      0.00000     0.56980    0.00260     0.57239
      H   32    0.25690      0.00000     0.74088    0.00222     0.74310
      H   33    0.25695      0.00000     0.74083    0.00222     0.74305
 =======================================================================
   * Total *    0.00000     45.98338   123.57174    0.44488   170.00000

 Normal termination of Gaussian 16 at Thu Jul 18 17:08:49 2024.
