 Gaussian 16, Revision A.03,

 -------------------------------------------------------
 # opt=CalcFc B3LYP/6-31G** SCRF=(Solvent=water) scf=xqc
 -------------------------------------------------------

 ----------------------------------
 NKYXYJFTTIPZDE-UHFFFAOYSA-N_conf_2
 ----------------------------------
 Symbolic Z-matrix:
 Charge =  0 Multiplicity = 1

 SCF Done:  E(RB3LYP) =  -1323.32045854     A.U. after   13 cycles
 SCF Done:  E(RB3LYP) =  -1323.32479298     A.U. after   11 cycles
 SCF Done:  E(RB3LYP) =  -1323.32488803     A.U. after   10 cycles
 SCF Done:  E(RB3LYP) =  -1323.32472188     A.U. after   10 cycles
 SCF Done:  E(RB3LYP) =  -1323.32493216     A.U. after   10 cycles
 SCF Done:  E(RB3LYP) =  -1323.32493852     A.U. after    9 cycles
 SCF Done:  E(RB3LYP) =  -1323.32493935     A.U. after    8 cycles
 SCF Done:  E(RB3LYP) =  -1323.32493939     A.U. after    7 cycles
 Optimization completed.
    -- Stationary point found.
 Normal termination of Gaussian 16 at Thu Jul 18 16:10:03 2024.

 ----------------------------------------------------------------------
 # freq B3LYP/6-31G** SCRF=(Solvent=water) volume NMR pop=NPA density=c
 urrent Geom=AllCheck Guess=Read
 ----------------------------------------------------------------------

 Structure from the checkpoint file:  "NKYXYJFTTIPZDE-UHFFFAOYSA-N_conf_2_1.chk"
 ----------------------------------
 NKYXYJFTTIPZDE-UHFFFAOYSA-N_conf_2
 ----------------------------------
 Charge =  0 Multiplicity = 1

 SCF Done:  E(RB3LYP) =  -1323.32493939     A.U. after    1 cycles

      1  N    Isotropic =   199.5974   Anisotropy =    72.9381

      2  C    Isotropic =    53.0907   Anisotropy =   156.8873

      3  C    Isotropic =    78.0029   Anisotropy =   135.4284

      4  C    Isotropic =    72.4736   Anisotropy =   151.4601

      5  C    Isotropic =    48.2662   Anisotropy =   103.8916

      6  O    Isotropic =   213.6596   Anisotropy =    75.1399

      7  C    Isotropic =    48.2661   Anisotropy =   103.8917

      8  C    Isotropic =    72.4737   Anisotropy =   151.4602

      9  C    Isotropic =    78.0029   Anisotropy =   135.4284

     10  C    Isotropic =    53.0908   Anisotropy =   156.8872

     11  N    Isotropic =   199.5975   Anisotropy =    72.9381

     12  C    Isotropic =    84.4185   Anisotropy =   127.6406

     13  C    Isotropic =    70.4879   Anisotropy =   128.7697

     14  C    Isotropic =    62.6133   Anisotropy =    11.3840

     15  F    Isotropic =   278.3666   Anisotropy =   121.0515

     16  F    Isotropic =   260.6666   Anisotropy =   132.5285

     17  F    Isotropic =   257.2127   Anisotropy =   125.8990

     18  C    Isotropic =    70.4878   Anisotropy =   128.7699

     19  C    Isotropic =    62.6133   Anisotropy =    11.3840

     20  F    Isotropic =   260.6665   Anisotropy =   132.5283

     21  F    Isotropic =   278.3666   Anisotropy =   121.0515

     22  F    Isotropic =   257.2127   Anisotropy =   125.8990

     23  C    Isotropic =    84.4185   Anisotropy =   127.6406

     24  H    Isotropic =    28.4222   Anisotropy =    12.2412

     25  H    Isotropic =    28.4467   Anisotropy =    12.6484

     26  H    Isotropic =    25.0030   Anisotropy =     6.1840

     27  H    Isotropic =    24.8132   Anisotropy =     9.2951

     28  H    Isotropic =    24.8132   Anisotropy =     9.2951

     29  H    Isotropic =    25.0030   Anisotropy =     6.1840

     30  H    Isotropic =    28.4467   Anisotropy =    12.6484

     31  H    Isotropic =    28.4222   Anisotropy =    12.2413

     32  H    Isotropic =    24.9212   Anisotropy =     8.8765

     33  H    Isotropic =    24.9212   Anisotropy =     8.8765

  Exact polarizability: 301.711 -10.252 182.933  -0.000   0.000 163.913
 Approx polarizability: 343.941   2.992 223.450  -0.000  -0.000 211.793

                      1                      2                      3
                      A                      A                      A
 Frequencies --     28.2834                28.7590                39.4708
 Red. masses --      8.0412                 8.8805                 9.7579
 Frc consts  --      0.0038                 0.0043                 0.0090
 IR Inten    --      5.8770                 1.8940                 0.8922

                      4                      5                      6
                      A                      A                      A
 Frequencies --     47.1242                48.4410                99.8052
 Red. masses --     12.2607                 8.4766                11.2280
 Frc consts  --      0.0160                 0.0117                 0.0659
 IR Inten    --      1.7006                 0.7194                 0.0167

                      7                      8                      9
                      A                      A                      A
 Frequencies --    112.4021               120.5147               137.5407
 Red. masses --      4.8572                 5.2002                 7.6799
 Frc consts  --      0.0362                 0.0445                 0.0856
 IR Inten    --      0.6345                 0.4047                 0.2983

                     10                     11                     12
                      A                      A                      A
 Frequencies --    160.5550               181.7689               250.1243
 Red. masses --      6.0722                 8.0429                 6.8792
 Frc consts  --      0.0922                 0.1566                 0.2536
 IR Inten    --      1.6651                 0.4858                 2.7363

                     13                     14                     15
                      A                      A                      A
 Frequencies --    276.4220               288.0649               313.5450
 Red. masses --      7.5057                 8.4059                 6.0420
 Frc consts  --      0.3379                 0.4110                 0.3500
 IR Inten    --      2.4745                 5.0955                 3.4808

                     16                     17                     18
                      A                      A                      A
 Frequencies --    315.8749               323.5068               324.7727
 Red. masses --      4.2654                 1.0680                 1.1753
 Frc consts  --      0.2507                 0.0659                 0.0730
 IR Inten    --      6.2210                44.5054                11.8038

                     19                     20                     21
                      A                      A                      A
 Frequencies --    345.0366               363.7066               368.1560
 Red. masses --      9.4536                 5.6880                 5.9958
 Frc consts  --      0.6631                 0.4433                 0.4788
 IR Inten    --      6.7401                 0.5570                 8.8491

                     22                     23                     24
                      A                      A                      A
 Frequencies --    383.7495               396.8948               451.7123
 Red. masses --      5.8817                 4.9824                 4.2751
 Frc consts  --      0.5103                 0.4624                 0.5139
 IR Inten    --      0.0026                12.3412                11.7295

                     25                     26                     27
                      A                      A                      A
 Frequencies --    462.4929               472.5458               487.2702
 Red. masses --      4.2342                 5.3609                 7.4378
 Frc consts  --      0.5336                 0.7053                 1.0405
 IR Inten    --      3.1096                 2.6425                47.4912

                     28                     29                     30
                      A                      A                      A
 Frequencies --    511.4114               512.8437               531.2465
 Red. masses --      8.2652                 7.1895                 4.4151
 Frc consts  --      1.2736                 1.1141                 0.7341
 IR Inten    --      0.0088                59.2020                22.9343

                     31                     32                     33
                      A                      A                      A
 Frequencies --    554.6073               579.8531               582.7083
 Red. masses --      4.3985                 1.7588                 4.9819
 Frc consts  --      0.7971                 0.3484                 0.9967
 IR Inten    --    153.8538               375.6375                74.2230

                     34                     35                     36
                      A                      A                      A
 Frequencies --    585.5136               626.8490               652.3946
 Red. masses --      1.7925                 5.1187                 3.9048
 Frc consts  --      0.3621                 1.1850                 0.9792
 IR Inten    --    468.1827                16.8053                70.0159

                     37                     38                     39
                      A                      A                      A
 Frequencies --    652.5454               673.8666               675.1403
 Red. masses --      3.8111                 8.1661                 8.3639
 Frc consts  --      0.9561                 2.1848                 2.2462
 IR Inten    --     71.4310                13.4620                17.1614

                     40                     41                     42
                      A                      A                      A
 Frequencies --    721.6578               725.6851               749.2602
 Red. masses --      5.4022                 5.3833                 8.6124
 Frc consts  --      1.6576                 1.6703                 2.8486
 IR Inten    --      0.5898                 0.0424                 0.7067

                     43                     44                     45
                      A                      A                      A
 Frequencies --    749.7194               780.2773               834.7616
 Red. masses --      9.1256                 4.2945                 1.6461
 Frc consts  --      3.0221                 1.5405                 0.6758
 IR Inten    --      8.2733                 3.5374                24.7502

                     46                     47                     48
                      A                      A                      A
 Frequencies --    849.1387               859.5071               880.8168
 Red. masses --      1.7325                 3.8350                 1.4393
 Frc consts  --      0.7360                 1.6692                 0.6579
 IR Inten    --     72.7275                98.7365                41.3939

                     49                     50                     51
                      A                      A                      A
 Frequencies --    880.9896               926.1806               928.5219
 Red. masses --      1.4685                 5.1973                 5.8547
 Frc consts  --      0.6715                 2.6267                 2.9740
 IR Inten    --     40.3555                20.6340                37.5874

                     52                     53                     54
                      A                      A                      A
 Frequencies --    955.6111               956.0524              1062.6542
 Red. masses --      1.2943                 1.3002                 3.5680
 Frc consts  --      0.6964                 0.7002                 2.3739
 IR Inten    --      1.0280                 2.7084                37.3080

                     55                     56                     57
                      A                      A                      A
 Frequencies --   1062.8318              1108.5024              1110.2661
 Red. masses --      3.4581                 1.5887                 1.5627
 Frc consts  --      2.3015                 1.1502                 1.1349
 IR Inten    --    186.8994                 5.3785                49.9548

                     58                     59                     60
                      A                      A                      A
 Frequencies --   1145.2768              1145.9634              1163.5389
 Red. masses --      6.5203                11.4418                 2.2196
 Frc consts  --      5.0389                 8.8529                 1.7705
 IR Inten    --    296.8338               364.5854               138.3647

                     61                     62                     63
                      A                      A                      A
 Frequencies --   1164.0922              1174.7906              1178.3243
 Red. masses --      1.8927                 2.5296                 2.3366
 Frc consts  --      1.5112                 2.0570                 1.9114
 IR Inten    --    248.0707                 7.5806               162.6566

                     64                     65                     66
                      A                      A                      A
 Frequencies --   1232.2351              1245.5849              1278.9663
 Red. masses --      2.5884                 2.2591                 3.0742
 Frc consts  --      2.3156                 2.0651                 2.9628
 IR Inten    --     50.9155               769.8992               185.2713

                     67                     68                     69
                      A                      A                      A
 Frequencies --   1282.8313              1297.0334              1297.7695
 Red. masses --      3.6655                 2.3354                 1.8272
 Frc consts  --      3.5540                 2.3148                 1.8132
 IR Inten    --    339.1336               165.1265                11.3067

                     70                     71                     72
                      A                      A                      A
 Frequencies --   1355.7338              1356.6408              1370.2914
 Red. masses --      3.1618                 3.2077                 7.0027
 Frc consts  --      3.4240                 3.4783                 7.7472
 IR Inten    --    202.2360               147.8436                99.8797

                     73                     74                     75
                      A                      A                      A
 Frequencies --   1374.5086              1490.6498              1494.4355
 Red. masses --      7.2410                 3.6127                 3.7103
 Frc consts  --      8.0601                 4.7297                 4.8821
 IR Inten    --     46.2289               195.6659                80.3614

                     76                     77                     78
                      A                      A                      A
 Frequencies --   1531.1712              1548.9264              1632.4381
 Red. masses --      2.9527                 3.1056                 6.8456
 Frc consts  --      4.0786                 4.3899                10.7483
 IR Inten    --    698.0751                50.0689                14.2155

                     79                     80                     81
                      A                      A                      A
 Frequencies --   1642.0121              1659.0991              1661.1177
 Red. masses --      7.1017                 1.5491                 1.3421
 Frc consts  --     11.2815                 2.5122                 2.1819
 IR Inten    --     16.5266                61.6613                 1.6880

                     82                     83                     84
                      A                      A                      A
 Frequencies --   1672.6893              1676.0334              3190.7788
 Red. masses --      2.5485                 3.5373                 1.0900
 Frc consts  --      4.2011                 5.8545                 6.5383
 IR Inten    --    222.4194                12.1228                24.8785

                     85                     86                     87
                      A                      A                      A
 Frequencies --   3190.9372              3218.3258              3218.3820
 Red. masses --      1.0900                 1.0906                 1.0906
 Frc consts  --      6.5388                 6.6555                 6.6555
 IR Inten    --     12.8886                15.3246                 0.5574

                     88                     89                     90
                      A                      A                      A
 Frequencies --   3223.7889              3223.9196              3566.7743
 Red. masses --      1.0931                 1.0932                 1.0485
 Frc consts  --      6.6936                 6.6946                 7.8591
 IR Inten    --      0.5517                 3.3477                96.4386

                     91                     92                     93
                      A                      A                      A
 Frequencies --   3566.8334              3669.4800              3669.4804
 Red. masses --      1.0485                 1.0986                 1.0987
 Frc consts  --      7.8596                 8.7160                 8.7161
 IR Inten    --      1.0330                42.6939                16.1355

 - Thermochemistry -
 -------------------
 Temperature   298.150 Kelvin.  Pressure   1.00000 Atm.
 Atom     1 has atomic number  7 and mass  14.00307

 Molecular mass:   336.06973 amu.
 Principal axes and moments of inertia in atomic units:
                           1         2         3
     Eigenvalues --  4881.80583********************
           X            0.99919  -0.04031  -0.00000
           Y            0.04031   0.99919  -0.00000
           Z            0.00000   0.00000   1.00000
 This molecule is an asymmetric top.
 Rotational symmetry number  1.
 Warning -- assumption of classical behavior for rotation
           may cause significant error
 Rotational temperatures (Kelvin)      0.01774     0.00763     0.00742
 Rotational constants (GHZ):           0.36969     0.15900     0.15460
 Zero-point vibrational energy     597659.2 (Joules/Mol)
                                  142.84397 (Kcal/Mol)
 Warning -- explicit consideration of  34 degrees of freedom as
           vibrations may cause significant error
 Vibrational temperatures:     40.69    41.38    56.79    67.80    69.70
          (Kelvin)            143.60   161.72   173.39   197.89   231.00
                              261.52   359.87   397.71   414.46   451.12
                              454.47   465.45   467.28   496.43   523.29
                              529.69   552.13   571.04   649.91   665.42
                              679.89   701.07   735.81   737.87   764.35
                              797.96   834.28   838.39   842.42   901.90
                              938.65   938.87   969.54   971.38  1038.30
                             1044.10  1078.02  1078.68  1122.65  1201.04
                             1221.72  1236.64  1267.30  1267.55  1332.57
                             1335.94  1374.91  1375.55  1528.92  1529.18
                             1594.89  1597.43  1647.80  1648.79  1674.07
                             1674.87  1690.26  1695.35  1772.91  1792.12
                             1840.15  1845.71  1866.14  1867.20  1950.60
                             1951.90  1971.54  1977.61  2144.71  2150.16
                             2203.01  2228.56  2348.71  2362.49  2387.07
                             2389.98  2406.63  2411.44  4590.82  4591.05
                             4630.45  4630.53  4638.31  4638.50  5131.79
                             5131.88  5279.56  5279.56

 Zero-point correction=                           0.227636 (Hartree/Particle)
 Thermal correction to Energy=                    0.247766
 Thermal correction to Enthalpy=                  0.248710
 Thermal correction to Gibbs Free Energy=         0.177405
 Sum of electronic and zero-point Energies=          -1323.097303
 Sum of electronic and thermal Energies=             -1323.077173
 Sum of electronic and thermal Enthalpies=           -1323.076229
 Sum of electronic and thermal Free Energies=        -1323.147535

                     E (Thermal)             CV                S
                      KCal/Mol        Cal/Mol-Kelvin    Cal/Mol-Kelvin
 Total                  155.476             77.398            150.076
 Electronic               0.000              0.000              0.000
 Translational            0.889              2.981             43.331
 Rotational               0.889              2.981             34.824
 Vibrational            153.698             71.436             71.920
 Vibration     1          0.593              1.984              5.946
 Vibration     2          0.593              1.984              5.913
 Vibration     3          0.594              1.981              5.285
 Vibration     4          0.595              1.979              4.935
 Vibration     5          0.595              1.978              4.880
 Vibration     6          0.604              1.949              3.458
 Vibration     7          0.607              1.939              3.227
 Vibration     8          0.609              1.932              3.092
 Vibration     9          0.614              1.916              2.838
 Vibration    10          0.622              1.891              2.543
 Vibration    11          0.630              1.865              2.310
 Vibration    12          0.663              1.763              1.730
 Vibration    13          0.678              1.717              1.556
 Vibration    14          0.685              1.696              1.485
 Vibration    15          0.701              1.648              1.344
 Vibration    16          0.703              1.643              1.331
 Vibration    17          0.708              1.628              1.292
 Vibration    18          0.709              1.626              1.286
 Vibration    19          0.723              1.585              1.189
 Vibration    20          0.737              1.547              1.106
 Vibration    21          0.741              1.538              1.087
 Vibration    22          0.753              1.505              1.024
 Vibration    23          0.763              1.477              0.974
 Vibration    24          0.810              1.357              0.791
 Vibration    25          0.820              1.333              0.759
 Vibration    26          0.829              1.311              0.730
 Vibration    27          0.843              1.278              0.691
 Vibration    28          0.867              1.225              0.630
 Vibration    29          0.868              1.222              0.627
 Vibration    30          0.886              1.181              0.584
 Vibration    31          0.910              1.130              0.535
 Vibration    32          0.936              1.075              0.486
 Vibration    33          0.940              1.069              0.480
 Vibration    34          0.943              1.063              0.475

 Optimization completed.
    -- Stationary point found.
 Normal termination of Gaussian 16 at Thu Jul 18 16:40:33 2024.
 Gaussian 16:  ES64L-G16RevA.03 25-Dec-2016

 ----------------------------------------------------------------------
 # TD(NStates=10, Root=1) B3LYP/6-31G** SCRF=(Solvent=water) volume pop
 =NPA density=current Geom=AllCheck Guess=Read
 ----------------------------------------------------------------------

 Structure from the checkpoint file:  "NKYXYJFTTIPZDE-UHFFFAOYSA-N_conf_2_2.chk"
 ----------------------------------
 NKYXYJFTTIPZDE-UHFFFAOYSA-N_conf_2
 ----------------------------------
 Charge =  0 Multiplicity = 1

                         Standard orientation:
 ---------------------------------------------------------------------
 Center     Atomic      Atomic             Coordinates (Angstroms)
 Number     Number       Type             X           Y           Z
 ---------------------------------------------------------------------
      1          7           0       -4.612751    1.586539    2.108910
      2          6           0       -3.468646    1.216131    1.407529
      3          6           0       -2.232300    1.841371    1.656727
      4          6           0       -1.078363    1.431582    0.998119
      5          6           0       -1.125252    0.381426    0.081942
      6          8           0        0.000000    0.000010   -0.639723
      7          6           0        1.125249   -0.381419    0.081939
      8          6           0        1.078353   -1.431586    0.998105
      9          6           0        2.232287   -1.841388    1.656710
     10          6           0        3.468637   -1.216151    1.407521
     11          7           0        4.612739   -1.586573    2.108901
     12          6           0        3.504495   -0.163734    0.477833
     13          6           0        2.344821    0.256736   -0.175429
     14          6           0        2.402014    1.400464   -1.150048
     15          9           0        3.646468    1.919627   -1.254731
     16          9           0        1.585920    2.421450   -0.781664
     17          9           0        2.025323    1.036483   -2.397840
     18          6           0       -2.344820   -0.256733   -0.175436
     19          6           0       -2.402005   -1.400451   -1.150067
     20          9           0       -1.585906   -2.421436   -0.781693
     21          9           0       -3.646456   -1.919620   -1.254756
     22          9           0       -2.025315   -1.036455   -2.397854
     23          6           0       -3.504498    0.163723    0.477829
     24          1           0       -5.487614    1.371553    1.648398
     25          1           0       -4.607475    2.533221    2.465973
     26          1           0       -2.180793    2.662264    2.366246
     27          1           0       -0.135518    1.936425    1.175787
     28          1           0        0.135506   -1.936427    1.175765
     29          1           0        2.180775   -2.662289    2.366220
     30          1           0        4.607457   -2.533258    2.465953
     31          1           0        5.487603   -1.371586    1.648392
     32          1           0        4.442525    0.337768    0.268792
     33          1           0       -4.442524   -0.337781    0.268781
 ---------------------------------------------------------------------

 SCF Done:  E(RB3LYP) =  -1323.32493939     A.U. after    1 cycles

 Excitation energies and oscillator strengths:

 Excited State   1:      Singlet-A      4.0698 eV  304.65 nm  f=0.2481  <S**2>=0.000
      85 -> 86         0.69608
 This state for optimization and/or second-order correction.
 Total Energy, E(TD-HF/TD-DFT) =  -1323.17537743
 Copying the excited state density for this state as the 1-particle RhoCI density.

 Excited State   2:      Singlet-A      4.3283 eV  286.45 nm  f=0.0331  <S**2>=0.000
      84 -> 86        -0.28222
      85 -> 87         0.62873

 Excited State   3:      Singlet-A      4.4309 eV  279.82 nm  f=0.0007  <S**2>=0.000
      84 -> 86         0.63625
      85 -> 87         0.29899

 Excited State   4:      Singlet-A      4.6676 eV  265.63 nm  f=0.0566  <S**2>=0.000
      84 -> 87         0.69245

 Excited State   5:      Singlet-A      4.9161 eV  252.20 nm  f=0.3475  <S**2>=0.000
      85 -> 88         0.69687

 Excited State   6:      Singlet-A      5.0857 eV  243.79 nm  f=0.0040  <S**2>=0.000
      84 -> 88        -0.36889
      85 -> 89         0.59781

 Excited State   7:      Singlet-A      5.3740 eV  230.71 nm  f=0.3796  <S**2>=0.000
      84 -> 89         0.69387

 Excited State   8:      Singlet-A      5.4513 eV  227.44 nm  f=0.0969  <S**2>=0.000
      82 -> 86         0.18418
      83 -> 87        -0.12085
      84 -> 88         0.56985
      85 -> 89         0.33846

 Excited State   9:      Singlet-A      5.9310 eV  209.04 nm  f=0.2395  <S**2>=0.000
      81 -> 86        -0.12316
      82 -> 87         0.19324
      83 -> 86         0.65882

 Excited State  10:      Singlet-A      6.0245 eV  205.80 nm  f=0.0541  <S**2>=0.000
      82 -> 86         0.58552
      83 -> 87         0.37909

 The electronic state is 1-A.
 Alpha  occ. eigenvalues --  -24.73045 -24.73045 -24.72544 -24.72544 -24.72394
 Alpha  occ. eigenvalues --  -24.72394 -19.19207 -14.34278 -14.34278 -10.43748
 Alpha  occ. eigenvalues --  -10.43748 -10.25635 -10.25635 -10.23953 -10.23953
 Alpha  occ. eigenvalues --  -10.21730 -10.21730 -10.20171 -10.20171 -10.20116
 Alpha  occ. eigenvalues --  -10.20115 -10.19857 -10.19857  -1.30364  -1.30362
 Alpha  occ. eigenvalues --   -1.21778  -1.21773  -1.21356  -1.21355  -1.08050
 Alpha  occ. eigenvalues --   -0.92413  -0.92336  -0.86615  -0.84820  -0.78367
 Alpha  occ. eigenvalues --   -0.78329  -0.75357  -0.72642  -0.70269  -0.69336
 Alpha  occ. eigenvalues --   -0.64236  -0.63307  -0.63240  -0.60694  -0.58273
 Alpha  occ. eigenvalues --   -0.58230  -0.58190  -0.57967  -0.57247  -0.56085
 Alpha  occ. eigenvalues --   -0.53827  -0.52190  -0.51976  -0.49323  -0.49153
 Alpha  occ. eigenvalues --   -0.46899  -0.46248  -0.46192  -0.45966  -0.45856
 Alpha  occ. eigenvalues --   -0.45490  -0.44584  -0.44450  -0.43666  -0.42269
 Alpha  occ. eigenvalues --   -0.42259  -0.41837  -0.41360  -0.40838  -0.40810
 Alpha  occ. eigenvalues --   -0.40050  -0.40041  -0.39666  -0.39333  -0.39163
 Alpha  occ. eigenvalues --   -0.37719  -0.37093  -0.35517  -0.33766  -0.31435
 Alpha  occ. eigenvalues --   -0.29429  -0.27033  -0.26719  -0.21435  -0.20264
 Alpha virt. eigenvalues --   -0.03074  -0.02022  -0.00019   0.00448   0.08424
 Alpha virt. eigenvalues --    0.08816   0.10355   0.11137   0.12751   0.12954
 Alpha virt. eigenvalues --    0.13280   0.13636   0.13655   0.14346   0.16305

 Mulliken charges:
               1
     1  N   -0.625773
     2  C    0.278247
     3  C   -0.157732
     4  C   -0.113580
     5  C    0.291830
     6  O   -0.571059
     7  C    0.291831
     8  C   -0.113579
     9  C   -0.157731
    10  C    0.278247
    11  N   -0.625772
    12  C   -0.164969
    13  C   -0.122349
    14  C    0.804334
    15  F   -0.281091
    16  F   -0.278644
    17  F   -0.278326
    18  C   -0.122349
    19  C    0.804333
    20  F   -0.278644
    21  F   -0.281091
    22  F   -0.278326
    23  C   -0.164970
    24  H    0.301866
    25  H    0.301042
    26  H    0.103308
    27  H    0.114453
    28  H    0.114454
    29  H    0.103309
    30  H    0.301043
    31  H    0.301866
    32  H    0.112910
    33  H    0.112909
 Sum of Mulliken charges =  -0.00000

 Dipole moment (field-independent basis, Debye):
    X=              0.0001    Y=             -0.0001    Z=              6.7516  Tot=              6.7516
 Quadrupole moment (field-independent basis, Debye-Ang):
   XX=            -71.1624   YY=           -116.8372   ZZ=           -128.7141
   XY=            -32.1508   XZ=              0.0000   YZ=             -0.0001

 Summary of Natural Population Analysis:

                                       Natural Population
                Natural  -----------------------------------------------
    Atom  No    Charge         Core      Valence    Rydberg      Total
 -----------------------------------------------------------------------
      N    1   -0.76645      1.99949     5.75606    0.01091     7.76645
      C    2    0.18492      1.99899     3.79833    0.01776     5.81508
      C    3   -0.32538      1.99906     4.31052    0.01580     6.32538
      C    4   -0.27062      1.99902     4.25657    0.01503     6.27062
      C    5    0.32338      1.99865     3.65394    0.02402     5.67662
      O    6   -0.48518      1.99971     6.47334    0.01213     8.48518
      C    7    0.32338      1.99865     3.65394    0.02402     5.67662
      C    8   -0.27062      1.99902     4.25657    0.01503     6.27062
      C    9   -0.32537      1.99906     4.31052    0.01580     6.32537
      C   10    0.18492      1.99899     3.79833    0.01776     5.81508
      N   11   -0.76645      1.99949     5.75605    0.01091     7.76645
      C   12   -0.26702      1.99902     4.25268    0.01533     6.26702
      C   13   -0.25894      1.99877     4.24260    0.01757     6.25894
      C   14    1.11373      1.99907     2.81611    0.07110     4.88627
      F   15   -0.36956      1.99993     7.36375    0.00588     9.36956
      F   16   -0.37595      1.99993     7.36998    0.00605     9.37595
      F   17   -0.37096      1.99993     7.36493    0.00610     9.37096
      C   18   -0.25894      1.99877     4.24260    0.01757     6.25894
      C   19    1.11373      1.99907     2.81611    0.07110     4.88627
      F   20   -0.37595      1.99993     7.36998    0.00605     9.37595
      F   21   -0.36956      1.99993     7.36375    0.00588     9.36956
      F   22   -0.37096      1.99993     7.36493    0.00610     9.37096
      C   23   -0.26703      1.99902     4.25268    0.01533     6.26703
      H   24    0.42833      0.00000     0.56935    0.00232     0.57167
      H   25    0.42772      0.00000     0.56970    0.00257     0.57228
      H   26    0.24968      0.00000     0.74884    0.00148     0.75032
      H   27    0.26271      0.00000     0.73508    0.00221     0.73729
      H   28    0.26271      0.00000     0.73508    0.00221     0.73729
      H   29    0.24968      0.00000     0.74884    0.00148     0.75032
      H   30    0.42772      0.00000     0.56970    0.00257     0.57228
      H   31    0.42833      0.00000     0.56935    0.00232     0.57167
      H   32    0.25700      0.00000     0.74078    0.00222     0.74300
      H   33    0.25700      0.00000     0.74078    0.00222     0.74300
 =======================================================================
   * Total *   -0.00000     45.98338   123.57178    0.44484   170.00000

 Normal termination of Gaussian 16 at Thu Jul 18 17:07:15 2024.
