 Gaussian 16, Revision A.03,

 -------------------------------------------------------
 # opt=CalcFc B3LYP/6-31G** SCRF=(Solvent=water) scf=xqc
 -------------------------------------------------------

 ----------------------------------
 NKYXYJFTTIPZDE-UHFFFAOYSA-N_conf_4
 ----------------------------------
 Symbolic Z-matrix:
 Charge =  0 Multiplicity = 1

 SCF Done:  E(RB3LYP) =  -1323.32025145     A.U. after   13 cycles
 SCF Done:  E(RB3LYP) =  -1323.32476045     A.U. after   11 cycles
 SCF Done:  E(RB3LYP) =  -1323.32491267     A.U. after    9 cycles
 SCF Done:  E(RB3LYP) =  -1323.32490850     A.U. after    8 cycles
 SCF Done:  E(RB3LYP) =  -1323.32490825     A.U. after    9 cycles
 SCF Done:  E(RB3LYP) =  -1323.32491330     A.U. after    8 cycles
 SCF Done:  E(RB3LYP) =  -1323.32491359     A.U. after    7 cycles
 Optimization completed.
    -- Stationary point found.
 Normal termination of Gaussian 16 at Thu Jul 18 16:12:07 2024.

 ----------------------------------------------------------------------
 # freq B3LYP/6-31G** SCRF=(Solvent=water) volume NMR pop=NPA density=c
 urrent Geom=AllCheck Guess=Read
 ----------------------------------------------------------------------

 Structure from the checkpoint file:  "NKYXYJFTTIPZDE-UHFFFAOYSA-N_conf_4_1.chk"
 ----------------------------------
 NKYXYJFTTIPZDE-UHFFFAOYSA-N_conf_4
 ----------------------------------
 Charge =  0 Multiplicity = 1

 SCF Done:  E(RB3LYP) =  -1323.32491359     A.U. after    1 cycles

      1  N    Isotropic =   199.6231   Anisotropy =    73.1147

      2  C    Isotropic =    53.1236   Anisotropy =   156.9242

      3  C    Isotropic =    78.0318   Anisotropy =   135.3368

      4  C    Isotropic =    72.6155   Anisotropy =   151.4487

      5  C    Isotropic =    48.2957   Anisotropy =   103.9463

      6  O    Isotropic =   213.9240   Anisotropy =    74.3634

      7  C    Isotropic =    48.2957   Anisotropy =   103.9464

      8  C    Isotropic =    72.6156   Anisotropy =   151.4488

      9  C    Isotropic =    78.0318   Anisotropy =   135.3368

     10  C    Isotropic =    53.1236   Anisotropy =   156.9241

     11  N    Isotropic =   199.6231   Anisotropy =    73.1147

     12  C    Isotropic =    84.4307   Anisotropy =   127.6524

     13  C    Isotropic =    70.4003   Anisotropy =   128.8270

     14  C    Isotropic =    62.6114   Anisotropy =    11.3867

     15  F    Isotropic =   257.2403   Anisotropy =   125.9816

     16  F    Isotropic =   260.6063   Anisotropy =   132.3493

     17  F    Isotropic =   278.3737   Anisotropy =   121.0688

     18  C    Isotropic =    70.4002   Anisotropy =   128.8272

     19  C    Isotropic =    62.6114   Anisotropy =    11.3867

     20  F    Isotropic =   278.3737   Anisotropy =   121.0687

     21  F    Isotropic =   260.6062   Anisotropy =   132.3491

     22  F    Isotropic =   257.2403   Anisotropy =   125.9816

     23  C    Isotropic =    84.4308   Anisotropy =   127.6524

     24  H    Isotropic =    28.4623   Anisotropy =    12.5798

     25  H    Isotropic =    28.4244   Anisotropy =    12.1493

     26  H    Isotropic =    25.0200   Anisotropy =     6.1808

     27  H    Isotropic =    24.8612   Anisotropy =     9.2473

     28  H    Isotropic =    24.8612   Anisotropy =     9.2473

     29  H    Isotropic =    25.0200   Anisotropy =     6.1808

     30  H    Isotropic =    28.4623   Anisotropy =    12.5798

     31  H    Isotropic =    28.4244   Anisotropy =    12.1493

     32  H    Isotropic =    24.9256   Anisotropy =     8.8506

     33  H    Isotropic =    24.9256   Anisotropy =     8.8506

  Exact polarizability: 300.947   9.061 181.658  -0.000  -0.000 165.873
 Approx polarizability: 344.836  -0.867 224.178  -0.000   0.000 210.218

                      1                      2                      3
                      A                      A                      A
 Frequencies --     26.7766                28.4653                40.4893
 Red. masses --      8.4320                 8.7410                10.9670
 Frc consts  --      0.0036                 0.0042                 0.0106
 IR Inten    --      2.3401                 0.6853                 0.5471

                      4                      5                      6
                      A                      A                      A
 Frequencies --     46.7667                49.6185                99.9816
 Red. masses --     12.9435                 7.3375                10.4979
 Frc consts  --      0.0167                 0.0106                 0.0618
 IR Inten    --      0.4441                 0.3294                 0.0350

                      7                      8                      9
                      A                      A                      A
 Frequencies --    112.8811               120.2650               137.4651
 Red. masses --      4.6882                 5.4485                 7.3813
 Frc consts  --      0.0352                 0.0464                 0.0822
 IR Inten    --      4.2729                 0.1838                 5.9433

                     10                     11                     12
                      A                      A                      A
 Frequencies --    159.3670               182.5071               250.9996
 Red. masses --      6.4526                 8.1448                 7.0795
 Frc consts  --      0.0966                 0.1598                 0.2628
 IR Inten    --      0.0059                 0.4127                 1.1677

                     13                     14                     15
                      A                      A                      A
 Frequencies --    275.7287               288.1272               314.2081
 Red. masses --      7.2333                 7.9096                 6.6705
 Frc consts  --      0.3240                 0.3869                 0.3880
 IR Inten    --     12.2847                 0.9196                 3.1977

                     16                     17                     18
                      A                      A                      A
 Frequencies --    316.6394               316.8768               316.8893
 Red. masses --      7.2484                 1.0472                 1.0539
 Frc consts  --      0.4282                 0.0620                 0.0624
 IR Inten    --      0.7626                16.0634                48.1364

                     19                     20                     21
                      A                      A                      A
 Frequencies --    344.5757               365.1742               368.9302
 Red. masses --      9.8320                 5.7654                 6.3693
 Frc consts  --      0.6878                 0.4530                 0.5108
 IR Inten    --      6.0922                 1.4696                 0.3362

                     22                     23                     24
                      A                      A                      A
 Frequencies --    383.9023               398.4760               452.5641
 Red. masses --      5.5203                 4.9843                 4.5253
 Frc consts  --      0.4794                 0.4663                 0.5461
 IR Inten    --      1.6603                 4.4138                 6.7188

                     25                     26                     27
                      A                      A                      A
 Frequencies --    461.7746               472.4730               488.4228
 Red. masses --      4.0936                 5.3185                 7.5927
 Frc consts  --      0.5143                 0.6995                 1.0672
 IR Inten    --     30.1188                 1.0429                30.0424

                     28                     29                     30
                      A                      A                      A
 Frequencies --    511.6857               512.6241               529.1254
 Red. masses --      8.3398                 8.1891                 4.1136
 Frc consts  --      1.2865                 1.2679                 0.6786
 IR Inten    --      7.6226                10.2841               186.6299

                     31                     32                     33
                      A                      A                      A
 Frequencies --    560.0337               580.2858               583.8652
 Red. masses --      6.2272                 3.1324                 1.5052
 Frc consts  --      1.1507                 0.6214                 0.3023
 IR Inten    --      5.2759               433.1999                 0.5910

                     34                     35                     36
                      A                      A                      A
 Frequencies --    586.3792               626.3947               650.4588
 Red. masses --      2.2781                 5.1677                 3.8269
 Frc consts  --      0.4615                 1.1947                 0.9540
 IR Inten    --    625.5799                 0.0001               135.7884

                     37                     38                     39
                      A                      A                      A
 Frequencies --    650.9662               673.9711               675.2205
 Red. masses --      4.6005                 8.2165                 8.4537
 Frc consts  --      1.1486                 2.1990                 2.2708
 IR Inten    --      3.5239                18.0486                27.8333

                     40                     41                     42
                      A                      A                      A
 Frequencies --    723.0787               725.1537               748.4314
 Red. masses --      4.6615                 5.4783                 8.1311
 Frc consts  --      1.4360                 1.6973                 2.6835
 IR Inten    --      6.8226                 3.1295                10.7527

                     43                     44                     45
                      A                      A                      A
 Frequencies --    750.0214               778.2419               837.8422
 Red. masses --      9.1051                 4.2696                 1.5173
 Frc consts  --      3.0177                 1.5236                 0.6276
 IR Inten    --      2.5869                 0.0391                33.3051

                     46                     47                     48
                      A                      A                      A
 Frequencies --    850.9135               856.1105               879.8613
 Red. masses --      1.7715                 4.5342                 1.4524
 Frc consts  --      0.7557                 1.9580                 0.6625
 IR Inten    --     54.6447               101.6385                27.6404

                     49                     50                     51
                      A                      A                      A
 Frequencies --    880.7906               926.4415               928.8117
 Red. masses --      1.5067                 5.1562                 5.7931
 Frc consts  --      0.6887                 2.6074                 2.9445
 IR Inten    --     30.7868                49.7460                27.6255

                     52                     53                     54
                      A                      A                      A
 Frequencies --    955.6603               955.9533              1063.0269
 Red. masses --      1.2980                 1.3016                 3.5847
 Frc consts  --      0.6985                 0.7008                 2.3867
 IR Inten    --      0.7382                 2.5621                48.7761

                     55                     56                     57
                      A                      A                      A
 Frequencies --   1063.2773              1108.6764              1110.4566
 Red. masses --      3.4729                 1.5816                 1.5540
 Frc consts  --      2.3133                 1.1454                 1.1290
 IR Inten    --    183.8382                 5.4780                47.6374

                     58                     59                     60
                      A                      A                      A
 Frequencies --   1145.1051              1145.9039              1163.7580
 Red. masses --      6.3714                11.4630                 2.2686
 Frc consts  --      4.9224                 8.8684                 1.8103
 IR Inten    --    294.7198               373.3194               144.9282

                     61                     62                     63
                      A                      A                      A
 Frequencies --   1164.2027              1174.9038              1178.6292
 Red. masses --      1.9087                 2.5092                 2.3298
 Frc consts  --      1.5242                 2.0408                 1.9069
 IR Inten    --    249.3602                 7.5336               156.2473

                     64                     65                     66
                      A                      A                      A
 Frequencies --   1232.8339              1246.1797              1279.4090
 Red. masses --      2.6062                 2.2696                 3.0772
 Frc consts  --      2.3339                 2.0766                 2.9677
 IR Inten    --     51.6198               764.1549               167.5548

                     67                     68                     69
                      A                      A                      A
 Frequencies --   1282.8858              1297.7536              1298.4781
 Red. masses --      3.7319                 2.3166                 1.8298
 Frc consts  --      3.6188                 2.2988                 1.8177
 IR Inten    --    347.2178               157.0449                12.2118

                     70                     71                     72
                      A                      A                      A
 Frequencies --   1356.3131              1357.2477              1370.1538
 Red. masses --      3.1191                 3.1771                 6.9655
 Frc consts  --      3.3806                 3.4483                 7.7045
 IR Inten    --    219.7721               136.7053                95.2369

                     73                     74                     75
                      A                      A                      A
 Frequencies --   1374.4057              1491.1601              1494.9430
 Red. masses --      7.2297                 3.5792                 3.6765
 Frc consts  --      8.0464                 4.6890                 4.8409
 IR Inten    --     49.2973               190.7722                83.5739

                     76                     77                     78
                      A                      A                      A
 Frequencies --   1531.5280              1549.2805              1632.4816
 Red. masses --      2.9452                 3.0997                 6.8893
 Frc consts  --      4.0701                 4.3835                10.8174
 IR Inten    --    680.9538                54.8504                18.0108

                     79                     80                     81
                      A                      A                      A
 Frequencies --   1642.0861              1659.2726              1661.1561
 Red. masses --      7.2041                 1.5075                 1.3128
 Frc consts  --     11.4451                 2.4453                 2.1344
 IR Inten    --     12.4967                13.1546                70.1973

                     82                     83                     84
                      A                      A                      A
 Frequencies --   1672.4707              1675.9145              3192.1164
 Red. masses --      2.6567                 3.7179                 1.0898
 Frc consts  --      4.3784                 6.1526                 6.5426
 IR Inten    --    161.9485                52.7282                24.1236

                     85                     86                     87
                      A                      A                      A
 Frequencies --   3192.2735              3218.3547              3218.4133
 Red. masses --      1.0898                 1.0906                 1.0906
 Frc consts  --      6.5431                 6.6558                 6.6559
 IR Inten    --     12.8443                15.8935                 0.6410

                     88                     89                     90
                      A                      A                      A
 Frequencies --   3223.8454              3223.9755              3566.8271
 Red. masses --      1.0932                 1.0933                 1.0485
 Frc consts  --      6.6940                 6.6951                 7.8593
 IR Inten    --      0.5644                 3.4010                49.3380

                     91                     92                     93
                      A                      A                      A
 Frequencies --   3566.8924              3669.6355              3669.6363
 Red. masses --      1.0485                 1.0987                 1.0987
 Frc consts  --      7.8598                 8.7174                 8.7174
 IR Inten    --     43.1536                40.4757                17.9660

 - Thermochemistry -
 -------------------
 Temperature   298.150 Kelvin.  Pressure   1.00000 Atm.
 Atom     1 has atomic number  7 and mass  14.00307

 Molecular mass:   336.06973 amu.
 Principal axes and moments of inertia in atomic units:
                           1         2         3
     Eigenvalues --  4880.31463********************
           X            0.99935   0.03591  -0.00000
           Y           -0.03591   0.99935   0.00000
           Z            0.00000  -0.00000   1.00000
 This molecule is an asymmetric top.
 Rotational symmetry number  1.
 Warning -- assumption of classical behavior for rotation
           may cause significant error
 Rotational temperatures (Kelvin)      0.01775     0.00764     0.00741
 Rotational constants (GHZ):           0.36980     0.15917     0.15446
 Zero-point vibrational energy     597681.4 (Joules/Mol)
                                  142.84929 (Kcal/Mol)
 Warning -- explicit consideration of  34 degrees of freedom as
           vibrations may cause significant error
 Vibrational temperatures:     38.53    40.96    58.26    67.29    71.39
          (Kelvin)            143.85   162.41   173.03   197.78   229.29
                              262.59   361.13   396.71   414.55   452.08
                              455.57   455.92   455.93   495.77   525.40
                              530.81   552.35   573.32   651.14   664.39
                              679.78   702.73   736.20   737.55   761.29
                              805.76   834.90   840.05   843.67   901.24
                              935.87   936.60   969.69   971.49  1040.35
                             1043.33  1076.83  1079.11  1119.72  1205.47
                             1224.27  1231.75  1265.92  1267.26  1332.94
                             1336.35  1374.98  1375.40  1529.46  1529.82
                             1595.14  1597.70  1647.55  1648.70  1674.39
                             1675.03  1690.42  1695.78  1773.77  1792.97
                             1840.78  1845.79  1867.18  1868.22  1951.43
                             1952.78  1971.35  1977.46  2145.45  2150.89
                             2203.53  2229.07  2348.78  2362.60  2387.32
                             2390.03  2406.31  2411.27  4592.74  4592.97
                             4630.49  4630.58  4638.39  4638.58  5131.87
                             5131.96  5279.79  5279.79

 Zero-point correction=                           0.227645 (Hartree/Particle)
 Thermal correction to Energy=                    0.247784
 Thermal correction to Enthalpy=                  0.248728
 Thermal correction to Gibbs Free Energy=         0.177381
 Sum of electronic and zero-point Energies=          -1323.097269
 Sum of electronic and thermal Energies=             -1323.077130
 Sum of electronic and thermal Enthalpies=           -1323.076186
 Sum of electronic and thermal Free Energies=        -1323.147533

                     E (Thermal)             CV                S
                      KCal/Mol        Cal/Mol-Kelvin    Cal/Mol-Kelvin
 Total                  155.487             77.406            150.163
 Electronic               0.000              0.000              0.000
 Translational            0.889              2.981             43.331
 Rotational               0.889              2.981             34.824
 Vibrational            153.709             71.444             72.008
 Vibration     1          0.593              1.984              6.055
 Vibration     2          0.593              1.984              5.934
 Vibration     3          0.594              1.981              5.235
 Vibration     4          0.595              1.979              4.950
 Vibration     5          0.595              1.978              4.833
 Vibration     6          0.604              1.949              3.455
 Vibration     7          0.607              1.939              3.219
 Vibration     8          0.609              1.932              3.096
 Vibration     9          0.614              1.916              2.839
 Vibration    10          0.621              1.892              2.557
 Vibration    11          0.630              1.864              2.303
 Vibration    12          0.663              1.761              1.724
 Vibration    13          0.677              1.718              1.560
 Vibration    14          0.685              1.696              1.485
 Vibration    15          0.702              1.647              1.340
 Vibration    16          0.704              1.642              1.327
 Vibration    17          0.704              1.641              1.326
 Vibration    18          0.704              1.641              1.326
 Vibration    19          0.723              1.586              1.191
 Vibration    20          0.738              1.544              1.100
 Vibration    21          0.741              1.536              1.084
 Vibration    22          0.753              1.505              1.024
 Vibration    23          0.765              1.473              0.968
 Vibration    24          0.811              1.355              0.788
 Vibration    25          0.820              1.335              0.761
 Vibration    26          0.829              1.311              0.731
 Vibration    27          0.844              1.276              0.688
 Vibration    28          0.867              1.224              0.630
 Vibration    29          0.868              1.222              0.627
 Vibration    30          0.884              1.186              0.589
 Vibration    31          0.916              1.118              0.524
 Vibration    32          0.937              1.074              0.485
 Vibration    33          0.941              1.066              0.478
 Vibration    34          0.943              1.061              0.474

 Optimization completed.
    -- Stationary point found.
 Normal termination of Gaussian 16 at Thu Jul 18 16:41:39 2024.
 Gaussian 16:  ES64L-G16RevA.03 25-Dec-2016

 ----------------------------------------------------------------------
 # TD(NStates=10, Root=1) B3LYP/6-31G** SCRF=(Solvent=water) volume pop
 =NPA density=current Geom=AllCheck Guess=Read
 ----------------------------------------------------------------------

 Structure from the checkpoint file:  "NKYXYJFTTIPZDE-UHFFFAOYSA-N_conf_4_2.chk"
 ----------------------------------
 NKYXYJFTTIPZDE-UHFFFAOYSA-N_conf_4
 ----------------------------------
 Charge =  0 Multiplicity = 1

                         Standard orientation:
 ---------------------------------------------------------------------
 Center     Atomic      Atomic             Coordinates (Angstroms)
 Number     Number       Type             X           Y           Z
 ---------------------------------------------------------------------
      1          7           0       -4.628493   -1.685749    2.012499
      2          6           0       -3.462951   -1.226662    1.405261
      3          6           0       -2.223845   -1.845896    1.655758
      4          6           0       -1.072032   -1.433654    0.994880
      5          6           0       -1.123775   -0.386513    0.075544
      6          8           0        0.000000   -0.000010   -0.645713
      7          6           0        1.123773    0.386508    0.075541
      8          6           0        1.072022    1.433659    0.994864
      9          6           0        2.223833    1.845914    1.655740
     10          6           0        3.462942    1.226682    1.405253
     11          7           0        4.628481    1.685781    2.012488
     12          6           0        3.503006    0.174844    0.475058
     13          6           0        2.345630   -0.247716   -0.180866
     14          6           0        2.406353   -1.394378   -1.151837
     15          9           0        2.027656   -1.035357   -2.400371
     16          9           0        1.594209   -2.417333   -0.780028
     17          9           0        3.652640   -1.909327   -1.255666
     18          6           0       -2.345629    0.247713   -0.180872
     19          6           0       -2.406345    1.394365   -1.151856
     20          9           0       -3.652628    1.909321   -1.255691
     21          9           0       -1.594194    2.417319   -0.780058
     22          9           0       -2.027649    1.035327   -2.400386
     23          6           0       -3.503008   -0.174834    0.475055
     24          1           0       -4.492231   -2.162656    2.894309
     25          1           0       -5.378081   -1.008747    2.071560
     26          1           0       -2.168755   -2.664618    2.367488
     27          1           0       -0.125984   -1.930554    1.177820
     28          1           0        0.125972    1.930557    1.177797
     29          1           0        2.168738    2.664643    2.367461
     30          1           0        4.492215    2.162697    2.894292
     31          1           0        5.378071    1.008782    2.071559
     32          1           0        4.442725   -0.323678    0.266589
     33          1           0       -4.442725    0.323691    0.266579
 ---------------------------------------------------------------------

 SCF Done:  E(RB3LYP) =  -1323.32491359     A.U. after    1 cycles

 Excitation energies and oscillator strengths:

 Excited State   1:      Singlet-A      4.0680 eV  304.78 nm  f=0.2467  <S**2>=0.000
      85 -> 86         0.69611
 This state for optimization and/or second-order correction.
 Total Energy, E(TD-HF/TD-DFT) =  -1323.17541578
 Copying the excited state density for this state as the 1-particle RhoCI density.

 Excited State   2:      Singlet-A      4.3291 eV  286.40 nm  f=0.0334  <S**2>=0.000
      84 -> 86         0.28525
      85 -> 87         0.62726

 Excited State   3:      Singlet-A      4.4318 eV  279.76 nm  f=0.0009  <S**2>=0.000
      84 -> 86         0.63492
      85 -> 87        -0.30196

 Excited State   4:      Singlet-A      4.6710 eV  265.43 nm  f=0.0563  <S**2>=0.000
      84 -> 87         0.69241

 Excited State   5:      Singlet-A      4.9249 eV  251.75 nm  f=0.3474  <S**2>=0.000
      85 -> 88         0.69668

 Excited State   6:      Singlet-A      5.0801 eV  244.06 nm  f=0.0052  <S**2>=0.000
      84 -> 88         0.35185
      85 -> 89         0.60775

 Excited State   7:      Singlet-A      5.3655 eV  231.07 nm  f=0.4001  <S**2>=0.000
      84 -> 89         0.69378

 Excited State   8:      Singlet-A      5.4567 eV  227.21 nm  f=0.0836  <S**2>=0.000
      82 -> 86         0.18547
      83 -> 87        -0.12046
      84 -> 88         0.57960
      85 -> 89        -0.32084

 Excited State   9:      Singlet-A      5.9296 eV  209.09 nm  f=0.2383  <S**2>=0.000
      81 -> 86         0.12331
      82 -> 87         0.19177
      83 -> 86         0.65928

 Excited State  10:      Singlet-A      6.0242 eV  205.81 nm  f=0.0533  <S**2>=0.000
      82 -> 86         0.58525
      83 -> 87         0.37920

 The electronic state is 1-A.
 Alpha  occ. eigenvalues --  -24.73044 -24.73044 -24.72541 -24.72541 -24.72394
 Alpha  occ. eigenvalues --  -24.72394 -19.19210 -14.34279 -14.34279 -10.43746
 Alpha  occ. eigenvalues --  -10.43746 -10.25636 -10.25636 -10.23955 -10.23955
 Alpha  occ. eigenvalues --  -10.21731 -10.21731 -10.20172 -10.20172 -10.20118
 Alpha  occ. eigenvalues --  -10.20117 -10.19856 -10.19856  -1.30362  -1.30360
 Alpha  occ. eigenvalues --   -1.21776  -1.21771  -1.21354  -1.21354  -1.08050
 Alpha  occ. eigenvalues --   -0.92412  -0.92336  -0.86614  -0.84821  -0.78367
 Alpha  occ. eigenvalues --   -0.78330  -0.75357  -0.72644  -0.70268  -0.69336
 Alpha  occ. eigenvalues --   -0.64239  -0.63307  -0.63241  -0.60695  -0.58275
 Alpha  occ. eigenvalues --   -0.58229  -0.58186  -0.57966  -0.57252  -0.56077
 Alpha  occ. eigenvalues --   -0.53822  -0.52194  -0.51975  -0.49329  -0.49131
 Alpha  occ. eigenvalues --   -0.46963  -0.46238  -0.46199  -0.45971  -0.45857
 Alpha  occ. eigenvalues --   -0.45503  -0.44567  -0.44459  -0.43799  -0.42274
 Alpha  occ. eigenvalues --   -0.42152  -0.41829  -0.41393  -0.40937  -0.40527
 Alpha  occ. eigenvalues --   -0.40069  -0.40041  -0.39868  -0.39180  -0.38407
 Alpha  occ. eigenvalues --   -0.38385  -0.37138  -0.35623  -0.33837  -0.31309
 Alpha  occ. eigenvalues --   -0.29433  -0.27035  -0.26718  -0.21436  -0.20262
 Alpha virt. eigenvalues --   -0.03078  -0.02016   0.00014   0.00411   0.08125
 Alpha virt. eigenvalues --    0.09063   0.10706   0.10958   0.12756   0.12918
 Alpha virt. eigenvalues --    0.13253   0.13550   0.13801   0.14178   0.16322

 Mulliken charges:
               1
     1  N   -0.625602
     2  C    0.278326
     3  C   -0.158104
     4  C   -0.113469
     5  C    0.291717
     6  O   -0.571076
     7  C    0.291718
     8  C   -0.113469
     9  C   -0.158103
    10  C    0.278326
    11  N   -0.625600
    12  C   -0.165109
    13  C   -0.122044
    14  C    0.804472
    15  F   -0.278324
    16  F   -0.278521
    17  F   -0.281071
    18  C   -0.122044
    19  C    0.804471
    20  F   -0.281071
    21  F   -0.278521
    22  F   -0.278324
    23  C   -0.165110
    24  H    0.300814
    25  H    0.301800
    26  H    0.103711
    27  H    0.114272
    28  H    0.114272
    29  H    0.103712
    30  H    0.300815
    31  H    0.301801
    32  H    0.112668
    33  H    0.112667
 Sum of Mulliken charges =  -0.00000

 Dipole moment (field-independent basis, Debye):
    X=              0.0001    Y=              0.0001    Z=             10.2944  Tot=             10.2944
 Quadrupole moment (field-independent basis, Debye-Ang):
   XX=            -80.2465   YY=           -128.2221   ZZ=           -112.1949
   XY=             14.5628   XZ=              0.0001   YZ=              0.0002

 Summary of Natural Population Analysis:

                                       Natural Population
                Natural  -----------------------------------------------
    Atom  No    Charge         Core      Valence    Rydberg      Total
 -----------------------------------------------------------------------
      N    1   -0.76660      1.99949     5.75620    0.01091     7.76660
      C    2    0.18508      1.99898     3.79815    0.01779     5.81492
      C    3   -0.32547      1.99906     4.31062    0.01579     6.32547
      C    4   -0.27088      1.99902     4.25684    0.01502     6.27088
      C    5    0.32366      1.99865     3.65370    0.02399     5.67634
      O    6   -0.48505      1.99971     6.47320    0.01215     8.48505
      C    7    0.32366      1.99865     3.65370    0.02399     5.67634
      C    8   -0.27088      1.99902     4.25684    0.01502     6.27088
      C    9   -0.32547      1.99906     4.31062    0.01579     6.32547
      C   10    0.18508      1.99898     3.79815    0.01779     5.81492
      N   11   -0.76659      1.99949     5.75620    0.01091     7.76659
      C   12   -0.26721      1.99901     4.25286    0.01534     6.26721
      C   13   -0.25881      1.99877     4.24245    0.01758     6.25881
      C   14    1.11379      1.99907     2.81604    0.07110     4.88621
      F   15   -0.37075      1.99993     7.36472    0.00610     9.37075
      F   16   -0.37602      1.99993     7.37004    0.00605     9.37602
      F   17   -0.36954      1.99993     7.36373    0.00588     9.36954
      C   18   -0.25881      1.99877     4.24245    0.01758     6.25881
      C   19    1.11379      1.99907     2.81604    0.07110     4.88621
      F   20   -0.36954      1.99993     7.36373    0.00588     9.36954
      F   21   -0.37602      1.99993     7.37004    0.00605     9.37602
      F   22   -0.37075      1.99993     7.36472    0.00610     9.37075
      C   23   -0.26721      1.99901     4.25286    0.01534     6.26721
      H   24    0.42753      0.00000     0.56987    0.00260     0.57247
      H   25    0.42836      0.00000     0.56932    0.00232     0.57164
      H   26    0.24995      0.00000     0.74857    0.00148     0.75005
      H   27    0.26257      0.00000     0.73522    0.00222     0.73743
      H   28    0.26257      0.00000     0.73522    0.00222     0.73743
      H   29    0.24995      0.00000     0.74857    0.00148     0.75005
      H   30    0.42753      0.00000     0.56987    0.00260     0.57247
      H   31    0.42836      0.00000     0.56932    0.00232     0.57164
      H   32    0.25686      0.00000     0.74092    0.00222     0.74314
      H   33    0.25686      0.00000     0.74092    0.00222     0.74314
 =======================================================================
   * Total *    0.00000     45.98338   123.57170    0.44492   170.00000

 Normal termination of Gaussian 16 at Thu Jul 18 17:08:37 2024.
