 Gaussian 16, Revision A.03,

 -------------------------------------------------------
 # opt=CalcFc B3LYP/6-31G** SCRF=(Solvent=water) scf=xqc
 -------------------------------------------------------

 ----------------------------------
 PWSKHLMYTZNYKO-UHFFFAOYSA-N_conf_1
 ----------------------------------
 Symbolic Z-matrix:
 Charge =  0 Multiplicity = 1

 SCF Done:  E(RB3LYP) =  -387.110186497     A.U. after   11 cycles
 SCF Done:  E(RB3LYP) =  -387.113402557     A.U. after    9 cycles
 SCF Done:  E(RB3LYP) =  -387.113708503     A.U. after   10 cycles
 SCF Done:  E(RB3LYP) =  -387.113724897     A.U. after    8 cycles
 SCF Done:  E(RB3LYP) =  -387.113753876     A.U. after    8 cycles
 SCF Done:  E(RB3LYP) =  -387.113754887     A.U. after    7 cycles
 SCF Done:  E(RB3LYP) =  -387.113755523     A.U. after    7 cycles
 SCF Done:  E(RB3LYP) =  -387.113750049     A.U. after    8 cycles
 SCF Done:  E(RB3LYP) =  -387.113756194     A.U. after    8 cycles
 SCF Done:  E(RB3LYP) =  -387.113755598     A.U. after    7 cycles
 SCF Done:  E(RB3LYP) =  -387.113756224     A.U. after    8 cycles
 SCF Done:  E(RB3LYP) =  -387.113756300     A.U. after    8 cycles
 SCF Done:  E(RB3LYP) =  -387.113756621     A.U. after    7 cycles
 Optimization completed on the basis of negligible forces.
    -- Stationary point found.
 Normal termination of Gaussian 16 at Tue Jul  9 19:06:36 2024.

 ----------------------------------------------------------------------
 # freq B3LYP/6-31G** SCRF=(Solvent=water) volume NMR pop=NPA density=c
 urrent Geom=AllCheck Guess=Read
 ----------------------------------------------------------------------

 Structure from the checkpoint file:  "PWSKHLMYTZNYKO-UHFFFAOYSA-N_conf_1_1.chk"
 ----------------------------------
 PWSKHLMYTZNYKO-UHFFFAOYSA-N_conf_1
 ----------------------------------
 Charge =  0 Multiplicity = 1

 SCF Done:  E(RB3LYP) =  -387.113756621     A.U. after    1 cycles

      1  N    Isotropic =   229.3693   Anisotropy =    33.1325

      2  C    Isotropic =   144.3261   Anisotropy =    21.1988

      3  C    Isotropic =   159.1505   Anisotropy =    14.4631

      4  C    Isotropic =   159.6355   Anisotropy =    23.1890

      5  C    Isotropic =   158.0680   Anisotropy =    26.2863

      6  C    Isotropic =   161.4224   Anisotropy =    20.5150

      7  C    Isotropic =   158.0457   Anisotropy =    28.9333

      8  C    Isotropic =   145.8636   Anisotropy =    37.7354

      9  N    Isotropic =   232.5136   Anisotropy =    33.4753

     10  H    Isotropic =    31.6940   Anisotropy =    11.0124

     11  H    Isotropic =    31.0644   Anisotropy =    15.3379

     12  H    Isotropic =    28.5337   Anisotropy =     9.0567

     13  H    Isotropic =    29.1787   Anisotropy =     6.3037

     14  H    Isotropic =    30.1517   Anisotropy =     8.8451

     15  H    Isotropic =    30.4530   Anisotropy =     6.3275

     16  H    Isotropic =    30.0622   Anisotropy =     4.9834

     17  H    Isotropic =    30.4007   Anisotropy =     6.8211

     18  H    Isotropic =    29.2568   Anisotropy =     7.3400

     19  H    Isotropic =    30.4168   Anisotropy =     6.5908

     20  H    Isotropic =    30.3663   Anisotropy =     7.5459

     21  H    Isotropic =    30.5958   Anisotropy =     6.0453

     22  H    Isotropic =    30.1431   Anisotropy =     4.8361

     23  H    Isotropic =    30.4674   Anisotropy =     4.7790

     24  H    Isotropic =    29.3180   Anisotropy =     5.3186

     25  H    Isotropic =    28.8939   Anisotropy =     5.9277

     26  H    Isotropic =    31.5684   Anisotropy =    11.8648

     27  H    Isotropic =    31.0481   Anisotropy =    15.6504

  Exact polarizability: 123.048   0.368 110.230  -0.727   1.900 111.175
 Approx polarizability: 119.938   0.832 119.581  -0.642   2.065 121.267

                      1                      2                      3
                      A                      A                      A
 Frequencies --     24.4550                61.7108                71.4357
 Red. masses --      3.4732                 2.1136                 2.0188
 Frc consts  --      0.0012                 0.0047                 0.0061
 IR Inten    --      0.8680                 1.7665                10.3831

                      4                      5                      6
                      A                      A                      A
 Frequencies --     88.7018               117.6512               139.8247
 Red. masses --      2.2857                 2.9646                 2.3883
 Frc consts  --      0.0106                 0.0242                 0.0275
 IR Inten    --      2.8160                 3.7925                 0.3440

                      7                      8                      9
                      A                      A                      A
 Frequencies --    198.0023               243.2104               258.4639
 Red. masses --      2.1628                 1.3481                 1.5103
 Frc consts  --      0.0500                 0.0470                 0.0594
 IR Inten    --      1.4210                57.7231                37.9637

                     10                     11                     12
                      A                      A                      A
 Frequencies --    269.9889               297.0070               319.2444
 Red. masses --      1.4296                 2.7984                 1.8514
 Frc consts  --      0.0614                 0.1454                 0.1112
 IR Inten    --     40.3259                 8.9581                 1.6388

                     13                     14                     15
                      A                      A                      A
 Frequencies --    437.2621               448.2219               526.9382
 Red. masses --      3.0772                 2.4795                 2.0026
 Frc consts  --      0.3466                 0.2935                 0.3276
 IR Inten    --     14.3844                10.3492                 1.7439

                     16                     17                     18
                      A                      A                      A
 Frequencies --    743.4095               758.4428               795.3549
 Red. masses --      1.1816                 1.3372                 1.6550
 Frc consts  --      0.3847                 0.4532                 0.6168
 IR Inten    --      7.7141                 3.6798                 2.4962

                     19                     20                     21
                      A                      A                      A
 Frequencies --    843.5671               853.7353               885.9197
 Red. masses --      1.3728                 1.4315                 1.7991
 Frc consts  --      0.5755                 0.6147                 0.8319
 IR Inten    --     93.9259                47.6337                41.6375

                     22                     23                     24
                      A                      A                      A
 Frequencies --    905.8012               952.9071               970.3279
 Red. masses --      1.5110                 1.6054                 1.5824
 Frc consts  --      0.7305                 0.8589                 0.8778
 IR Inten    --    101.0105                84.5883                19.8960

                     25                     26                     27
                      A                      A                      A
 Frequencies --    983.2389               991.2423              1040.5840
 Red. masses --      2.7425                 1.6784                 1.9442
 Frc consts  --      1.5621                 0.9716                 1.2404
 IR Inten    --      8.8532                12.4375                10.7835

                     28                     29                     30
                      A                      A                      A
 Frequencies --   1061.6055              1081.1946              1089.5077
 Red. masses --      1.7085                 2.4452                 2.1889
 Frc consts  --      1.1345                 1.6841                 1.5309
 IR Inten    --      2.7925                 6.0760                 8.0936

                     31                     32                     33
                      A                      A                      A
 Frequencies --   1118.6226              1138.1872              1157.9069
 Red. masses --      1.9437                 1.2999                 1.6958
 Frc consts  --      1.4330                 0.9922                 1.3396
 IR Inten    --     10.2274                 5.7009                 4.2725

                     34                     35                     36
                      A                      A                      A
 Frequencies --   1176.1270              1232.9325              1280.6307
 Red. masses --      1.5124                 1.4719                 1.3184
 Frc consts  --      1.2326                 1.3183                 1.2740
 IR Inten    --      7.8081                 2.4131                 1.3542

                     37                     38                     39
                      A                      A                      A
 Frequencies --   1285.7844              1307.7192              1316.7737
 Red. masses --      1.3209                 1.2185                 1.2356
 Frc consts  --      1.2867                 1.2277                 1.2622
 IR Inten    --      1.8809                 2.3670                 5.2579

                     40                     41                     42
                      A                      A                      A
 Frequencies --   1332.2666              1340.6752              1343.7199
 Red. masses --      1.0942                 1.1478                 1.2092
 Frc consts  --      1.1443                 1.2155                 1.2863
 IR Inten    --      3.8841                 0.9238                 2.5823

                     43                     44                     45
                      A                      A                      A
 Frequencies --   1352.6202              1393.3718              1401.4424
 Red. masses --      1.2080                 1.4147                 1.5629
 Frc consts  --      1.3022                 1.6183                 1.8086
 IR Inten    --      0.1741                11.2205                 0.3971

                     46                     47                     48
                      A                      A                      A
 Frequencies --   1407.3733              1435.6125              1436.7191
 Red. masses --      1.4528                 1.4326                 1.4912
 Frc consts  --      1.6954                 1.7396                 1.8135
 IR Inten    --      3.1372                17.0642                22.5745

                     49                     50                     51
                      A                      A                      A
 Frequencies --   1485.4975              1488.7771              1491.9984
 Red. masses --      1.0797                 1.0896                 1.0873
 Frc consts  --      1.4038                 1.4229                 1.4260
 IR Inten    --      1.0999                 3.5804                 1.2087

                     52                     53                     54
                      A                      A                      A
 Frequencies --   1504.7918              1511.2284              1520.2428
 Red. masses --      1.0911                 1.0947                 1.0881
 Frc consts  --      1.4557                 1.4730                 1.4817
 IR Inten    --      2.6016                 4.0971                 2.4282

                     55                     56                     57
                      A                      A                      A
 Frequencies --   1527.5321              1653.0908              1655.8063
 Red. masses --      1.0928                 1.0873                 1.0872
 Frc consts  --      1.5024                 1.7506                 1.7562
 IR Inten    --      1.9036                38.3387                35.9002

                     58                     59                     60
                      A                      A                      A
 Frequencies --   2952.1876              2952.8748              3005.3725
 Red. masses --      1.0727                 1.0722                 1.0610
 Frc consts  --      5.5081                 5.5082                 5.6464
 IR Inten    --    140.9789               113.8515                16.2261

                     61                     62                     63
                      A                      A                      A
 Frequencies --   3009.1774              3014.1943              3019.4278
 Red. masses --      1.0638                 1.0655                 1.0699
 Frc consts  --      5.6756                 5.7036                 5.7468
 IR Inten    --     64.6910                44.9995                91.3926

                     64                     65                     66
                      A                      A                      A
 Frequencies --   3022.7669              3039.0157              3040.7564
 Red. masses --      1.0614                 1.0957                 1.0891
 Frc consts  --      5.7142                 5.9625                 5.9333
 IR Inten    --     20.8298                58.8900                40.6354

                     67                     68                     69
                      A                      A                      A
 Frequencies --   3044.1343              3051.2806              3059.0478
 Red. masses --      1.0917                 1.0954                 1.0975
 Frc consts  --      5.9603                 6.0085                 6.0512
 IR Inten    --     19.4656                93.5627               106.4424

                     70                     71                     72
                      A                      A                      A
 Frequencies --   3070.0029              3090.9711              3473.8970
 Red. masses --      1.1041                 1.0962                 1.0510
 Frc consts  --      6.1308                 6.1709                 7.4730
 IR Inten    --    174.7669                76.8142                 2.2747

                     73                     74                     75
                      A                      A                      A
 Frequencies --   3474.1559              3551.4996              3552.9599
 Red. masses --      1.0506                 1.0912                 1.0917
 Frc consts  --      7.4710                 8.1089                 8.1196
 IR Inten    --      1.4661                 0.3456                 0.1551

 - Thermochemistry -
 -------------------
 Temperature   298.150 Kelvin.  Pressure   1.00000 Atm.
 Atom     1 has atomic number  7 and mass  14.00307

 Molecular mass:   130.14700 amu.
 Principal axes and moments of inertia in atomic units:
                           1         2         3
     Eigenvalues --   592.416273528.040823689.32048
           X            0.99999  -0.00416  -0.00000
           Y            0.00415   0.99974   0.02220
           Z           -0.00009  -0.02220   0.99975
 This molecule is an asymmetric top.
 Rotational symmetry number  1.
 Warning -- assumption of classical behavior for rotation
           may cause significant error
 Rotational temperatures (Kelvin)      0.14620     0.02455     0.02348
 Rotational constants (GHZ):           3.04641     0.51154     0.48918
 Zero-point vibrational energy     665004.9 (Joules/Mol)
                                  158.93997 (Kcal/Mol)
 Warning -- explicit consideration of  15 degrees of freedom as
           vibrations may cause significant error
 Vibrational temperatures:     35.19    88.79   102.78   127.62   169.27
          (Kelvin)            201.18   284.88   349.93   371.87   388.45
                              427.33   459.32   629.12   644.89   758.15
                             1069.60  1091.23  1144.34  1213.70  1228.33
                             1274.64  1303.25  1371.02  1396.09  1414.66
                             1426.18  1497.17  1527.41  1555.60  1567.56
                             1609.45  1637.60  1665.97  1692.18  1773.91
                             1842.54  1849.96  1881.52  1894.54  1916.83
                             1928.93  1933.31  1946.12  2004.75  2016.36
                             2024.90  2065.53  2067.12  2137.30  2142.02
                             2146.65  2165.06  2174.32  2187.29  2197.78
                             2378.43  2382.34  4247.54  4248.53  4324.06
                             4329.54  4336.75  4344.28  4349.09  4372.47
                             4374.97  4379.83  4390.11  4401.29  4417.05
                             4447.22  4998.16  4998.54  5109.82  5111.92

 Zero-point correction=                           0.253287 (Hartree/Particle)
 Thermal correction to Energy=                    0.265328
 Thermal correction to Enthalpy=                  0.266272
 Thermal correction to Gibbs Free Energy=         0.213936
 Sum of electronic and zero-point Energies=           -386.860470
 Sum of electronic and thermal Energies=              -386.848429
 Sum of electronic and thermal Enthalpies=            -386.847485
 Sum of electronic and thermal Free Energies=         -386.899820

                     E (Thermal)             CV                S
                      KCal/Mol        Cal/Mol-Kelvin    Cal/Mol-Kelvin
 Total                  166.496             42.569            110.150
 Electronic               0.000              0.000              0.000
 Translational            0.889              2.981             40.503
 Rotational               0.889              2.981             30.423
 Vibrational            164.718             36.607             39.223
 Vibration     1          0.593              1.985              6.235
 Vibration     2          0.597              1.973              4.402
 Vibration     3          0.598              1.968              4.113
 Vibration     4          0.602              1.957              3.688
 Vibration     5          0.608              1.935              3.139
 Vibration     6          0.615              1.913              2.806
 Vibration     7          0.637              1.843              2.152
 Vibration     8          0.659              1.774              1.779
 Vibration     9          0.667              1.748              1.672
 Vibration    10          0.674              1.728              1.596
 Vibration    11          0.691              1.679              1.434
 Vibration    12          0.705              1.637              1.314
 Vibration    13          0.798              1.389              0.835
 Vibration    14          0.807              1.365              0.801
 Vibration    15          0.882              1.190              0.594

 Optimization completed.
    -- Stationary point found.
 Normal termination of Gaussian 16 at Tue Jul  9 19:39:18 2024.
 Gaussian 16:  EM64L-G16RevA.03 25-Dec-2016

 ----------------------------------------------------------------------
 # TD(NStates=10, Root=1) B3LYP/6-31G** SCRF=(Solvent=water) volume pop
 =NPA density=current Geom=AllCheck Guess=Read
 ----------------------------------------------------------------------

 Structure from the checkpoint file:  "PWSKHLMYTZNYKO-UHFFFAOYSA-N_conf_1_2.chk"
 ----------------------------------
 PWSKHLMYTZNYKO-UHFFFAOYSA-N_conf_1
 ----------------------------------
 Charge =  0 Multiplicity = 1

                         Standard orientation:
 ---------------------------------------------------------------------
 Center     Atomic      Atomic             Coordinates (Angstroms)
 Number     Number       Type             X           Y           Z
 ---------------------------------------------------------------------
      1          7           0        2.958048   -1.266292    0.858128
      2          6           0        3.254959   -0.713330   -0.473454
      3          6           0        2.653284    0.680458   -0.692750
      4          6           0        1.115290    0.772388   -0.705289
      5          6           0        0.450869    0.824783    0.679438
      6          6           0       -1.072806    1.028245    0.644923
      7          6           0       -1.864312   -0.150579    0.062431
      8          6           0       -3.378181    0.064459    0.109598
      9          7           0       -4.093478   -1.103184   -0.431516
     10          1           0        3.385326   -0.667583    1.563603
     11          1           0        3.424680   -2.166774    0.953090
     12          1           0        4.337482   -0.652110   -0.680738
     13          1           0        2.837549   -1.402308   -1.219707
     14          1           0        3.034096    1.038217   -1.658000
     15          1           0        3.058293    1.371844    0.061277
     16          1           0        0.717316   -0.071194   -1.284944
     17          1           0        0.827548    1.678459   -1.257264
     18          1           0        0.694296   -0.089492    1.231066
     19          1           0        0.899892    1.653373    1.245150
     20          1           0       -1.425583    1.214363    1.668771
     21          1           0       -1.305672    1.939425    0.074572
     22          1           0       -1.566187   -0.325089   -0.980420
     23          1           0       -1.621440   -1.070254    0.611174
     24          1           0       -3.693298    0.196205    1.152826
     25          1           0       -3.622976    1.007655   -0.409811
     26          1           0       -3.891810   -1.175227   -1.428214
     27          1           0       -5.096121   -0.931720   -0.378098
 ---------------------------------------------------------------------

 SCF Done:  E(RB3LYP) =  -387.113756621     A.U. after    1 cycles

 Excitation energies and oscillator strengths:

 Excited State   1:      Singlet-A      7.3236 eV  169.29 nm  f=0.0153  <S**2>=0.000
      37 -> 38         0.67964
      37 -> 39        -0.10626
      37 -> 42        -0.10215
 This state for optimization and/or second-order correction.
 Total Energy, E(TD-HF/TD-DFT) =  -386.844620608
 Copying the excited state density for this state as the 1-particle RhoCI density.

 Excited State   2:      Singlet-A      7.4738 eV  165.89 nm  f=0.0143  <S**2>=0.000
      36 -> 39         0.68233
      36 -> 40        -0.14206

 Excited State   3:      Singlet-A      8.2668 eV  149.98 nm  f=0.0051  <S**2>=0.000
      36 -> 38         0.60336
      36 -> 40         0.34984

 Excited State   4:      Singlet-A      8.2737 eV  149.85 nm  f=0.0073  <S**2>=0.000
      37 -> 38         0.14621
      37 -> 39         0.63150
      37 -> 40         0.22618
      37 -> 41         0.12843

 Excited State   5:      Singlet-A      8.4120 eV  147.39 nm  f=0.0105  <S**2>=0.000
      36 -> 38        -0.34580
      36 -> 39         0.17310
      36 -> 40         0.56578
      36 -> 42        -0.11170

 Excited State   6:      Singlet-A      8.4532 eV  146.67 nm  f=0.0154  <S**2>=0.000
      37 -> 39        -0.12185
      37 -> 41         0.63513
      37 -> 43         0.24359

 Excited State   7:      Singlet-A      8.4987 eV  145.89 nm  f=0.0031  <S**2>=0.000
      37 -> 39        -0.26289
      37 -> 40         0.62517
      37 -> 42         0.13711

 Excited State   8:      Singlet-A      8.6615 eV  143.14 nm  f=0.0168  <S**2>=0.000
      36 -> 41         0.60744
      36 -> 43        -0.30642
      36 -> 47         0.11013

 Excited State   9:      Singlet-A      8.6953 eV  142.59 nm  f=0.0409  <S**2>=0.000
      37 -> 40        -0.16133
      37 -> 42         0.65239
      37 -> 45         0.15721

 Excited State  10:      Singlet-A      9.1230 eV  135.90 nm  f=0.0252  <S**2>=0.000
      36 -> 40         0.10580
      36 -> 42         0.62222
      36 -> 44        -0.23622
      36 -> 46         0.16331

 The electronic state is 1-A.
 Alpha  occ. eigenvalues --  -14.30799 -14.30764 -10.20060 -10.19957 -10.17490
 Alpha  occ. eigenvalues --  -10.17288 -10.17178 -10.17149 -10.16688  -0.87243
 Alpha  occ. eigenvalues --   -0.87193  -0.79251  -0.75420  -0.70354  -0.64802
 Alpha  occ. eigenvalues --   -0.59836  -0.57651  -0.55483  -0.48033  -0.47596
 Alpha  occ. eigenvalues --   -0.45738  -0.45140  -0.44479  -0.42871  -0.40888
 Alpha  occ. eigenvalues --   -0.39601  -0.38182  -0.36388  -0.36100  -0.33813
 Alpha  occ. eigenvalues --   -0.33145  -0.32478  -0.31204  -0.30665  -0.30385
 Alpha  occ. eigenvalues --   -0.23515  -0.23129
 Alpha virt. eigenvalues --    0.08516   0.09035   0.10522   0.11449   0.12351
 Alpha virt. eigenvalues --    0.13826   0.14034   0.15240   0.15952   0.16928
 Alpha virt. eigenvalues --    0.17727   0.18058   0.18839   0.19434   0.20354

 Mulliken charges:
               1
     1  N   -0.060781
     2  C   -0.067654
     3  C   -0.153615
     4  C   -0.161090
     5  C   -0.166786
     6  C   -0.184805
     7  C   -0.168488
     8  C   -0.051902
     9  N   -0.646452
    10  H    0.006062
    11  H   -0.015081
    12  H    0.088549
    13  H    0.095820
    14  H    0.048883
    15  H    0.061099
    16  H    0.091394
    17  H    0.076936
    18  H    0.078687
    19  H    0.078963
    20  H    0.090002
    21  H    0.093176
    22  H    0.095359
    23  H    0.092622
    24  H    0.099315
    25  H    0.080775
    26  H    0.248542
    27  H    0.250468
 Sum of Mulliken charges =   0.00000

 Dipole moment (field-independent basis, Debye):
    X=             -0.6915    Y=              1.0501    Z=             -1.5138  Tot=              1.9679
 Quadrupole moment (field-independent basis, Debye-Ang):
   XX=            -57.4615   YY=            -66.5455   ZZ=            -60.1456
   XY=             -4.5621   XZ=              1.1612   YZ=              1.9552

 Summary of Natural Population Analysis:

                                       Natural Population
                Natural  -----------------------------------------------
    Atom  No    Charge         Core      Valence    Rydberg      Total
 -----------------------------------------------------------------------
      N    1   -0.39248      1.99934     5.37032    0.02282     7.39248
      C    2   -0.35407      1.99930     4.33658    0.01820     6.35407
      C    3   -0.47664      1.99932     4.46437    0.01295     6.47664
      C    4   -0.46460      1.99932     4.45335    0.01193     6.46460
      C    5   -0.46038      1.99932     4.44850    0.01255     6.46038
      C    6   -0.46230      1.99933     4.45126    0.01170     6.46230
      C    7   -0.47468      1.99933     4.46376    0.01159     6.47468
      C    8   -0.25714      1.99936     4.24470    0.01308     6.25714
      N    9   -0.92889      1.99968     5.91437    0.01484     7.92889
      H   10    0.19824      0.00000     0.71735    0.08440     0.80176
      H   11    0.17529      0.00000     0.73905    0.08566     0.82471
      H   12    0.23620      0.00000     0.72506    0.03874     0.76380
      H   13    0.22576      0.00000     0.75237    0.02187     0.77424
      H   14    0.20046      0.00000     0.78371    0.01583     0.79954
      H   15    0.21239      0.00000     0.76774    0.01987     0.78761
      H   16    0.22874      0.00000     0.76678    0.00448     0.77126
      H   17    0.22370      0.00000     0.76831    0.00799     0.77630
      H   18    0.21890      0.00000     0.77475    0.00636     0.78110
      H   19    0.22925      0.00000     0.76435    0.00640     0.77075
      H   20    0.23558      0.00000     0.76214    0.00229     0.76442
      H   21    0.23127      0.00000     0.76636    0.00237     0.76873
      H   22    0.22739      0.00000     0.77050    0.00211     0.77261
      H   23    0.23166      0.00000     0.76534    0.00300     0.76834
      H   24    0.22264      0.00000     0.77521    0.00214     0.77736
      H   25    0.20161      0.00000     0.79564    0.00276     0.79839
      H   26    0.38242      0.00000     0.61465    0.00293     0.61758
      H   27    0.38931      0.00000     0.60803    0.00266     0.61069
 =======================================================================
   * Total *   -0.00037     17.99431    55.56456    0.44150    74.00037

 1\1\GINC-CN34\SP\RB3LYP TD-FC\6-31G(d,p)\C7H18N2\QDUEZ\09-Jul-2024\0\\
 # TD(NStates=10, Root=1) B3LYP/6-31G** SCRF=(Solvent=water) volume pop
 =NPA density=current Geom=AllCheck Guess=Read\\PWSKHLMYTZNYKO-UHFFFAOY
 SA-N_conf_1\\0,1\N,0,-3.1247235394,1.0794963826,0.6224065005\C,0,-3.14
 11609556,0.8845866843,-0.8366252887\C,0,-2.4029267432,-0.3842544859,-1
 .2813744428\C,0,-0.8837957631,-0.4221069373,-1.026736336\C,0,-0.468296
 9623,-0.8137574936,0.4000220668\C,0,1.0493612397,-0.9539193064,0.60310
 40687\C,0,1.8350347637,0.360015298,0.4949516761\C,0,3.3297708157,0.187

 Normal termination of Gaussian 16 at Tue Jul  9 20:08:46 2024.
