 Gaussian 16, Revision A.03,

 -------------------------------------------------------
 # opt=CalcFc B3LYP/6-31G** SCRF=(Solvent=water) scf=xqc
 -------------------------------------------------------

 ----------------------------------
 PWSKHLMYTZNYKO-UHFFFAOYSA-N_conf_3
 ----------------------------------
 Symbolic Z-matrix:
 Charge =  0 Multiplicity = 1

 SCF Done:  E(RB3LYP) =  -387.108362108     A.U. after   11 cycles
 SCF Done:  E(RB3LYP) =  -387.111599428     A.U. after    9 cycles
 SCF Done:  E(RB3LYP) =  -387.111688930     A.U. after    8 cycles
 SCF Done:  E(RB3LYP) =  -387.111690917     A.U. after    7 cycles
 SCF Done:  E(RB3LYP) =  -387.111691337     A.U. after    7 cycles
 SCF Done:  E(RB3LYP) =  -387.111691365     A.U. after    6 cycles
 Optimization completed.
    -- Stationary point found.
 Normal termination of Gaussian 16 at Tue Jul  9 18:43:43 2024.

 ----------------------------------------------------------------------
 # freq B3LYP/6-31G** SCRF=(Solvent=water) volume NMR pop=NPA density=c
 urrent Geom=AllCheck Guess=Read
 ----------------------------------------------------------------------

 Structure from the checkpoint file:  "PWSKHLMYTZNYKO-UHFFFAOYSA-N_conf_3_1.chk"
 ----------------------------------
 PWSKHLMYTZNYKO-UHFFFAOYSA-N_conf_3
 ----------------------------------
 Charge =  0 Multiplicity = 1

 SCF Done:  E(RB3LYP) =  -387.111691365     A.U. after    1 cycles

      1  N    Isotropic =   232.7346   Anisotropy =    33.2739

      2  C    Isotropic =   145.7686   Anisotropy =    37.8937

      3  C    Isotropic =   154.2589   Anisotropy =    36.8097

      4  C    Isotropic =   161.9924   Anisotropy =    23.3636

      5  C    Isotropic =   165.1367   Anisotropy =    20.0839

      6  C    Isotropic =   159.9800   Anisotropy =    13.8643

      7  C    Isotropic =   160.1911   Anisotropy =    23.9421

      8  C    Isotropic =   149.1464   Anisotropy =    35.6444

      9  N    Isotropic =   234.3712   Anisotropy =    34.0604

     10  H    Isotropic =    31.5772   Anisotropy =    12.0427

     11  H    Isotropic =    31.0645   Anisotropy =    15.7154

     12  H    Isotropic =    29.2853   Anisotropy =     4.8941

     13  H    Isotropic =    28.9430   Anisotropy =     6.1084

     14  H    Isotropic =    29.9568   Anisotropy =     7.1656

     15  H    Isotropic =    30.4773   Anisotropy =     4.3170

     16  H    Isotropic =    30.5787   Anisotropy =     5.1267

     17  H    Isotropic =    30.2405   Anisotropy =     7.7451

     18  H    Isotropic =    30.4100   Anisotropy =     4.9930

     19  H    Isotropic =    30.2404   Anisotropy =     9.3903

     20  H    Isotropic =    30.1892   Anisotropy =     8.5780

     21  H    Isotropic =    30.2162   Anisotropy =     8.1681

     22  H    Isotropic =    30.0529   Anisotropy =     4.0069

     23  H    Isotropic =    30.2727   Anisotropy =     7.7316

     24  H    Isotropic =    28.4407   Anisotropy =     6.9522

     25  H    Isotropic =    29.4767   Anisotropy =     5.9655

     26  H    Isotropic =    31.0975   Anisotropy =    15.5855

     27  H    Isotropic =    31.6626   Anisotropy =    11.6792

  Exact polarizability: 117.476  -2.656 117.622  -2.502  -1.163 107.252
 Approx polarizability: 119.084  -1.478 121.562  -2.915  -0.631 119.228

                      1                      2                      3
                      A                      A                      A
 Frequencies --     35.0013                47.7905                75.6759
 Red. masses --      2.7139                 2.2671                 2.3030
 Frc consts  --      0.0020                 0.0031                 0.0078
 IR Inten    --      2.6454                 2.4681                 0.2294

                      4                      5                      6
                      A                      A                      A
 Frequencies --     94.8825               129.0674               148.9846
 Red. masses --      2.1697                 2.4113                 2.6245
 Frc consts  --      0.0115                 0.0237                 0.0343
 IR Inten    --     11.9569                 5.4207                 1.9302

                      7                      8                      9
                      A                      A                      A
 Frequencies --    212.1194               220.4553               255.8994
 Red. masses --      2.3239                 1.8924                 1.1720
 Frc consts  --      0.0616                 0.0542                 0.0452
 IR Inten    --      4.2383                19.7286                 4.8442

                     10                     11                     12
                      A                      A                      A
 Frequencies --    269.7712               319.8572               349.0868
 Red. masses --      1.2778                 1.9815                 2.9898
 Frc consts  --      0.0548                 0.1194                 0.2147
 IR Inten    --     98.4508                11.2429                 3.4025

                     13                     14                     15
                      A                      A                      A
 Frequencies --    434.1809               439.3155               505.5691
 Red. masses --      2.7888                 2.5601                 2.2491
 Frc consts  --      0.3097                 0.2911                 0.3387
 IR Inten    --     13.5220                 5.4494                 2.5848

                     16                     17                     18
                      A                      A                      A
 Frequencies --    738.8824               755.6482               797.2682
 Red. masses --      1.1883                 1.2541                 1.6956
 Frc consts  --      0.3822                 0.4219                 0.6350
 IR Inten    --     10.1981                 3.9015                 1.1620

                     19                     20                     21
                      A                      A                      A
 Frequencies --    842.8335               852.3950               885.5283
 Red. masses --      1.4750                 1.3402                 1.6403
 Frc consts  --      0.6174                 0.5737                 0.7579
 IR Inten    --     34.3102                58.8217                57.6181

                     22                     23                     24
                      A                      A                      A
 Frequencies --    916.9867               922.2590               976.6281
 Red. masses --      1.3731                 1.6541                 2.4277
 Frc consts  --      0.6803                 0.8289                 1.3643
 IR Inten    --    113.6312               116.5874                 6.5351

                     25                     26                     27
                      A                      A                      A
 Frequencies --    979.4965              1039.1539              1043.0628
 Red. masses --      1.9098                 1.8351                 2.0380
 Frc consts  --      1.0795                 1.1675                 1.3064
 IR Inten    --      0.8123                13.7646                16.5373

                     28                     29                     30
                      A                      A                      A
 Frequencies --   1066.1694              1080.3675              1093.1063
 Red. masses --      2.1018                 2.4281                 1.7258
 Frc consts  --      1.4077                 1.6698                 1.2150
 IR Inten    --     10.4077                 1.5726                 6.6259

                     31                     32                     33
                      A                      A                      A
 Frequencies --   1113.9105              1125.6189              1152.1143
 Red. masses --      1.7919                 1.4535                 1.6355
 Frc consts  --      1.3100                 1.0850                 1.2791
 IR Inten    --      9.7042                 8.6587                 9.5002

                     34                     35                     36
                      A                      A                      A
 Frequencies --   1196.9321              1231.9547              1263.1799
 Red. masses --      1.5189                 1.3000                 1.3829
 Frc consts  --      1.2821                 1.1625                 1.3001
 IR Inten    --      2.9075                 7.6997                 2.0825

                     37                     38                     39
                      A                      A                      A
 Frequencies --   1283.4099              1305.3782              1318.6158
 Red. masses --      1.3559                 1.2531                 1.2033
 Frc consts  --      1.3158                 1.2581                 1.2327
 IR Inten    --      0.4684                 0.7349                 2.0014

                     40                     41                     42
                      A                      A                      A
 Frequencies --   1330.9844              1340.6322              1349.1674
 Red. masses --      1.0589                 1.0963                 1.2140
 Frc consts  --      1.1052                 1.1609                 1.3019
 IR Inten    --      3.4196                 1.5489                 1.4432

                     43                     44                     45
                      A                      A                      A
 Frequencies --   1365.9571              1392.8037              1398.3943
 Red. masses --      1.3321                 1.3765                 1.4586
 Frc consts  --      1.4644                 1.5733                 1.6805
 IR Inten    --      7.9705                 4.1152                 2.5102

                     46                     47                     48
                      A                      A                      A
 Frequencies --   1403.1230              1436.5345              1439.0772
 Red. masses --      1.4468                 1.4840                 1.4856
 Frc consts  --      1.6782                 1.8043                 1.8127
 IR Inten    --      5.6571                20.0381                11.3829

                     49                     50                     51
                      A                      A                      A
 Frequencies --   1488.3144              1490.1066              1498.9287
 Red. masses --      1.0863                 1.0824                 1.0816
 Frc consts  --      1.4177                 1.4160                 1.4318
 IR Inten    --      1.6425                 2.3972                 7.6726

                     52                     53                     54
                      A                      A                      A
 Frequencies --   1504.1378              1505.6127              1525.6379
 Red. masses --      1.0949                 1.0913                 1.0902
 Frc consts  --      1.4595                 1.4576                 1.4950
 IR Inten    --      1.2771                 4.5676                 2.0394

                     55                     56                     57
                      A                      A                      A
 Frequencies --   1528.6169              1655.9761              1656.2487
 Red. masses --      1.0926                 1.0871                 1.0866
 Frc consts  --      1.5042                 1.7565                 1.7562
 IR Inten    --      1.0162                34.3658                37.5462

                     58                     59                     60
                      A                      A                      A
 Frequencies --   2952.7462              2977.7397              3011.0885
 Red. masses --      1.0722                 1.0694                 1.0630
 Frc consts  --      5.5077                 5.5866                 5.6784
 IR Inten    --    122.0716                98.3228                 8.8165

                     61                     62                     63
                      A                      A                      A
 Frequencies --   3013.3769              3016.1850              3024.7009
 Red. masses --      1.0620                 1.0675                 1.0649
 Frc consts  --      5.6816                 5.7218                 5.7402
 IR Inten    --     37.4986                69.9621                61.8094

                     64                     65                     66
                      A                      A                      A
 Frequencies --   3029.5988              3042.2760              3046.7669
 Red. masses --      1.0663                 1.0904                 1.0932
 Frc consts  --      5.7663                 5.9460                 5.9790
 IR Inten    --     10.9798                31.2405                55.7791

                     67                     68                     69
                      A                      A                      A
 Frequencies --   3047.7422              3052.1689              3064.8704
 Red. masses --      1.0911                 1.0953                 1.1019
 Frc consts  --      5.9714                 6.0116                 6.0984
 IR Inten    --     31.4595               103.3703               133.2712

                     70                     71                     72
                      A                      A                      A
 Frequencies --   3069.4827              3088.0092              3472.4348
 Red. masses --      1.1033                 1.0962                 1.0511
 Frc consts  --      6.1243                 6.1589                 7.4672
 IR Inten    --    174.3714               106.4041                 2.1931

                     73                     74                     75
                      A                      A                      A
 Frequencies --   3474.7983              3549.9108              3552.2756
 Red. masses --      1.0510                 1.0911                 1.0912
 Frc consts  --      7.4765                 8.1009                 8.1126
 IR Inten    --      2.1123                 0.3005                 0.2708

 - Thermochemistry -
 -------------------
 Temperature   298.150 Kelvin.  Pressure   1.00000 Atm.
 Atom     1 has atomic number  7 and mass  14.00307

 Molecular mass:   130.14700 amu.
 Principal axes and moments of inertia in atomic units:
                           1         2         3
     Eigenvalues --  1021.293362367.534113147.45441
           X            0.99999  -0.00264  -0.00181
           Y            0.00263   0.99996  -0.00810
           Z            0.00183   0.00810   0.99997
 This molecule is an asymmetric top.
 Rotational symmetry number  1.
 Warning -- assumption of classical behavior for rotation
           may cause significant error
 Rotational temperatures (Kelvin)      0.08481     0.03658     0.02752
 Rotational constants (GHZ):           1.76711     0.76229     0.57340
 Zero-point vibrational energy     665811.5 (Joules/Mol)
                                  159.13276 (Kcal/Mol)
 Warning -- explicit consideration of  15 degrees of freedom as
           vibrations may cause significant error
 Vibrational temperatures:     50.36    68.76   108.88   136.51   185.70
          (Kelvin)            214.36   305.19   317.19   368.18   388.14
                              460.20   502.26   624.69   632.08   727.40
                             1063.09  1087.21  1147.09  1212.65  1226.41
                             1274.08  1319.34  1326.93  1405.15  1409.28
                             1495.11  1500.73  1533.98  1554.41  1572.74
                             1602.67  1619.51  1657.64  1722.12  1772.51
                             1817.43  1846.54  1878.15  1897.19  1914.99
                             1928.87  1941.15  1965.31  2003.93  2011.98
                             2018.78  2066.85  2070.51  2141.35  2143.93
                             2156.62  2164.12  2166.24  2195.05  2199.34
                             2382.58  2382.97  4248.34  4284.30  4332.28
                             4335.58  4339.62  4351.87  4358.92  4377.16
                             4383.62  4385.02  4391.39  4409.66  4416.30
                             4442.96  4996.06  4999.46  5107.53  5110.93

 Zero-point correction=                           0.253594 (Hartree/Particle)
 Thermal correction to Energy=                    0.265561
 Thermal correction to Enthalpy=                  0.266505
 Thermal correction to Gibbs Free Energy=         0.214586
 Sum of electronic and zero-point Energies=           -386.858097
 Sum of electronic and thermal Energies=              -386.846131
 Sum of electronic and thermal Enthalpies=            -386.845187
 Sum of electronic and thermal Free Energies=         -386.897106

                     E (Thermal)             CV                S
                      KCal/Mol        Cal/Mol-Kelvin    Cal/Mol-Kelvin
 Total                  166.642             42.517            109.273
 Electronic               0.000              0.000              0.000
 Translational            0.889              2.981             40.503
 Rotational               0.889              2.981             30.410
 Vibrational            164.864             36.555             38.359
 Vibration     1          0.594              1.982              5.524
 Vibration     2          0.595              1.978              4.907
 Vibration     3          0.599              1.965              4.000
 Vibration     4          0.603              1.953              3.557
 Vibration     5          0.612              1.924              2.960
 Vibration     6          0.618              1.904              2.685
 Vibration     7          0.643              1.822              2.025
 Vibration     8          0.647              1.810              1.955
 Vibration     9          0.666              1.753              1.690
 Vibration    10          0.674              1.729              1.598
 Vibration    11          0.706              1.636              1.311
 Vibration    12          0.726              1.577              1.170
 Vibration    13          0.795              1.396              0.845
 Vibration    14          0.799              1.384              0.829
 Vibration    15          0.861              1.238              0.644

 Optimization completed.
    -- Stationary point found.
 Normal termination of Gaussian 16 at Tue Jul  9 19:17:43 2024.
 Gaussian 16:  EM64L-G16RevA.03 25-Dec-2016

 ----------------------------------------------------------------------
 # TD(NStates=10, Root=1) B3LYP/6-31G** SCRF=(Solvent=water) volume pop
 =NPA density=current Geom=AllCheck Guess=Read
 ----------------------------------------------------------------------

 Structure from the checkpoint file:  "PWSKHLMYTZNYKO-UHFFFAOYSA-N_conf_3_2.chk"
 ----------------------------------
 PWSKHLMYTZNYKO-UHFFFAOYSA-N_conf_3
 ----------------------------------
 Charge =  0 Multiplicity = 1

                         Standard orientation:
 ---------------------------------------------------------------------
 Center     Atomic      Atomic             Coordinates (Angstroms)
 Number     Number       Type             X           Y           Z
 ---------------------------------------------------------------------
      1          7           0       -3.319339    1.547614    0.027172
      2          6           0       -2.877683    0.169384    0.296583
      3          6           0       -1.474508   -0.073946   -0.262616
      4          6           0       -0.964426   -1.497478    0.005941
      5          6           0        0.425406   -1.829135   -0.579750
      6          6           0        1.633864   -1.548129    0.335736
      7          6           0        1.916270   -0.087131    0.722694
      8          6           0        2.282070    0.824615   -0.450544
      9          7           0        2.642752    2.169111    0.032919
     10          1           0       -3.440329    1.660146   -0.978763
     11          1           0       -4.249429    1.680649    0.420458
     12          1           0       -2.863024    0.029360    1.385201
     13          1           0       -3.562666   -0.597579   -0.105861
     14          1           0       -0.797962    0.676209    0.161152
     15          1           0       -1.488146    0.100946   -1.348521
     16          1           0       -0.957051   -1.687278    1.088970
     17          1           0       -1.696872   -2.200022   -0.413391
     18          1           0        0.547602   -1.313932   -1.541589
     19          1           0        0.452684   -2.900239   -0.816128
     20          1           0        2.531463   -1.956228   -0.149611
     21          1           0        1.503479   -2.128662    1.258942
     22          1           0        1.053729    0.335554    1.255234
     23          1           0        2.748921   -0.066411    1.437098
     24          1           0        1.460661    0.836212   -1.185127
     25          1           0        3.155754    0.408787   -0.969399
     26          1           0        2.878326    2.755324   -0.766217
     27          1           0        1.813014    2.601006    0.438651
 ---------------------------------------------------------------------

 SCF Done:  E(RB3LYP) =  -387.111691365     A.U. after    1 cycles

 Excitation energies and oscillator strengths:

 Excited State   1:      Singlet-A      7.3248 eV  169.27 nm  f=0.0134  <S**2>=0.000
      36 -> 38         0.12715
      37 -> 38         0.62032
      37 -> 39        -0.15926
      37 -> 40         0.24148
 This state for optimization and/or second-order correction.
 Total Energy, E(TD-HF/TD-DFT) =  -386.842510066
 Copying the excited state density for this state as the 1-particle RhoCI density.

 Excited State   2:      Singlet-A      7.4651 eV  166.08 nm  f=0.0168  <S**2>=0.000
      36 -> 38         0.25130
      36 -> 39         0.62987
      37 -> 39        -0.14105

 Excited State   3:      Singlet-A      7.8750 eV  157.44 nm  f=0.0086  <S**2>=0.000
      36 -> 38         0.63308
      36 -> 39        -0.22486
      36 -> 42         0.10865
      37 -> 38        -0.13573

 Excited State   4:      Singlet-A      8.0491 eV  154.03 nm  f=0.0153  <S**2>=0.000
      36 -> 40         0.12469
      37 -> 38        -0.27335
      37 -> 40         0.60531
      37 -> 43         0.14078

 Excited State   5:      Singlet-A      8.3097 eV  149.20 nm  f=0.0240  <S**2>=0.000
      36 -> 39         0.13051
      37 -> 38         0.11499
      37 -> 39         0.59738
      37 -> 40         0.16613
      37 -> 41        -0.23111
      37 -> 42         0.12465

 Excited State   6:      Singlet-A      8.3551 eV  148.39 nm  f=0.0178  <S**2>=0.000
      36 -> 39        -0.12042
      36 -> 40         0.66505
      36 -> 43        -0.10518
      37 -> 40        -0.13932

 Excited State   7:      Singlet-A      8.5542 eV  144.94 nm  f=0.0158  <S**2>=0.000
      37 -> 39         0.28240
      37 -> 41         0.56646
      37 -> 42        -0.18701
      37 -> 43         0.14622

 Excited State   8:      Singlet-A      8.5707 eV  144.66 nm  f=0.0163  <S**2>=0.000
      36 -> 41         0.64619
      36 -> 45         0.17602

 Excited State   9:      Singlet-A      8.7818 eV  141.18 nm  f=0.0597  <S**2>=0.000
      36 -> 42         0.11600
      37 -> 41         0.29309
      37 -> 42         0.57788
      37 -> 43        -0.15457
      37 -> 44         0.12646

 Excited State  10:      Singlet-A      8.9095 eV  139.16 nm  f=0.0332  <S**2>=0.000
      36 -> 40         0.12747
      36 -> 42         0.58818
      36 -> 43         0.18380
      36 -> 44        -0.17434
      36 -> 46        -0.10958
      37 -> 42        -0.12057

 The electronic state is 1-A.
 Alpha  occ. eigenvalues --  -14.30815 -14.30787 -10.20012 -10.19916 -10.17588
 Alpha  occ. eigenvalues --  -10.17532 -10.17484 -10.17317 -10.17300  -0.87274
 Alpha  occ. eigenvalues --   -0.87201  -0.79579  -0.75459  -0.70460  -0.64799
 Alpha  occ. eigenvalues --   -0.60629  -0.57847  -0.55123  -0.48349  -0.47181
 Alpha  occ. eigenvalues --   -0.46386  -0.45952  -0.43741  -0.42796  -0.41445
 Alpha  occ. eigenvalues --   -0.39382  -0.38661  -0.36724  -0.35580  -0.34218
 Alpha  occ. eigenvalues --   -0.33834  -0.32699  -0.31244  -0.30646  -0.30219
 Alpha  occ. eigenvalues --   -0.23568  -0.23484
 Alpha virt. eigenvalues --    0.07922   0.09033   0.09341   0.11034   0.12113
 Alpha virt. eigenvalues --    0.12934   0.14667   0.14870   0.15583   0.17753
 Alpha virt. eigenvalues --    0.17955   0.18736   0.18910   0.19236   0.19768

 Mulliken charges:
               1
     1  N   -0.646611
     2  C   -0.053601
     3  C   -0.129997
     4  C   -0.172542
     5  C   -0.185851
     6  C   -0.187208
     7  C   -0.151181
     8  C   -0.087715
     9  N   -0.070761
    10  H    0.246247
    11  H    0.247983
    12  H    0.092529
    13  H    0.075233
    14  H   -0.000123
    15  H    0.064738
    16  H    0.084792
    17  H    0.086336
    18  H    0.089150
    19  H    0.090989
    20  H    0.092862
    21  H    0.098602
    22  H    0.055851
    23  H    0.098113
    24  H    0.107435
    25  H    0.106353
    26  H    0.081530
    27  H   -0.033153
 Sum of Mulliken charges =  -0.00000

 Dipole moment (field-independent basis, Debye):
    X=              1.4579    Y=             -1.3002    Z=             -1.3312  Tot=              2.3639
 Quadrupole moment (field-independent basis, Debye-Ang):
   XX=            -48.1107   YY=            -64.5550   ZZ=            -59.9244
   XY=              2.9074   XZ=              1.0454   YZ=             -2.4709

 Summary of Natural Population Analysis:

                                       Natural Population
                Natural  -----------------------------------------------
    Atom  No    Charge         Core      Valence    Rydberg      Total
 -----------------------------------------------------------------------
      N    1   -0.92901      1.99968     5.91450    0.01483     7.92901
      C    2   -0.25788      1.99935     4.24502    0.01351     6.25788
      C    3   -0.47582      1.99931     4.46378    0.01274     6.47582
      C    4   -0.46934      1.99934     4.45827    0.01173     6.46934
      C    5   -0.46505      1.99933     4.45390    0.01181     6.46505
      C    6   -0.46686      1.99933     4.45537    0.01215     6.46686
      C    7   -0.49345      1.99930     4.47787    0.01627     6.49345
      C    8   -0.36495      1.99930     4.34437    0.02128     6.36495
      N    9   -0.36468      1.99934     5.34253    0.02281     7.36468
      H   10    0.38097      0.00000     0.61586    0.00317     0.61903
      H   11    0.38753      0.00000     0.60977    0.00269     0.61247
      H   12    0.21847      0.00000     0.77855    0.00298     0.78153
      H   13    0.19840      0.00000     0.79886    0.00274     0.80160
      H   14    0.15237      0.00000     0.80907    0.03856     0.84763
      H   15    0.21140      0.00000     0.78208    0.00652     0.78860
      H   16    0.22641      0.00000     0.77077    0.00282     0.77359
      H   17    0.23332      0.00000     0.76427    0.00242     0.76668
      H   18    0.22561      0.00000     0.77181    0.00258     0.77439
      H   19    0.24141      0.00000     0.75651    0.00208     0.75859
      H   20    0.23599      0.00000     0.76178    0.00223     0.76401
      H   21    0.24241      0.00000     0.75563    0.00195     0.75759
      H   22    0.20164      0.00000     0.77573    0.02263     0.79836
      H   23    0.24427      0.00000     0.75051    0.00523     0.75573
      H   24    0.24207      0.00000     0.72484    0.03309     0.75793
      H   25    0.23233      0.00000     0.74941    0.01826     0.76767
      H   26    0.24770      0.00000     0.68297    0.06932     0.75230
      H   27    0.16376      0.00000     0.74274    0.09349     0.83624
 =======================================================================
   * Total *   -0.00097     17.99428    55.55680    0.44990    74.00097

 1\1\GINC-CN34\SP\RB3LYP TD-FC\6-31G(d,p)\C7H18N2\QDUEZ\09-Jul-2024\0\\
 # TD(NStates=10, Root=1) B3LYP/6-31G** SCRF=(Solvent=water) volume pop
 =NPA density=current Geom=AllCheck Guess=Read\\PWSKHLMYTZNYKO-UHFFFAOY
 SA-N_conf_3\\0,1\N,0,2.9927900689,2.1116325181,-0.4709966104\C,0,2.773
 2196608,0.6616583527,-0.5995501859\C,0,1.4344786737,0.25472681,0.01931
 45081\C,0,1.1546082632,-1.2504777336,-0.1022706138\C,0,-0.1565094099,-
 1.7395892108,0.5507258688\C,0,-1.4064607964,-1.7413555868,-0.352084667
 \C,0,-1.92359292,-0.3868764997,-0.8639111023\C,0,-2.4145073201,0.56366

 Normal termination of Gaussian 16 at Tue Jul  9 19:56:26 2024.
