 Gaussian 16, Revision A.03,

 -------------------------------------------------------
 # opt=CalcFc B3LYP/6-31G** SCRF=(Solvent=water) scf=xqc
 -------------------------------------------------------

 ----------------------------------
 PWSKHLMYTZNYKO-UHFFFAOYSA-N_conf_0
 ----------------------------------
 Symbolic Z-matrix:
 Charge =  0 Multiplicity = 1

 SCF Done:  E(RB3LYP) =  -387.113439073     A.U. after   10 cycles
 SCF Done:  E(RB3LYP) =  -387.116641479     A.U. after    9 cycles
 SCF Done:  E(RB3LYP) =  -387.116709127     A.U. after    9 cycles
 SCF Done:  E(RB3LYP) =  -387.116709823     A.U. after    7 cycles
 SCF Done:  E(RB3LYP) =  -387.116709823     A.U. after    6 cycles
 Optimization completed.
    -- Stationary point found.
 Normal termination of Gaussian 16 at Tue Jul  9 18:36:43 2024.

 ----------------------------------------------------------------------
 # freq B3LYP/6-31G** SCRF=(Solvent=water) volume NMR pop=NPA density=c
 urrent Geom=AllCheck Guess=Read
 ----------------------------------------------------------------------

 Structure from the checkpoint file:  "PWSKHLMYTZNYKO-UHFFFAOYSA-N_conf_0_1.chk"
 ----------------------------------
 PWSKHLMYTZNYKO-UHFFFAOYSA-N_conf_0
 ----------------------------------
 Charge =  0 Multiplicity = 1

 SCF Done:  E(RB3LYP) =  -387.116709823     A.U. after    1 cycles

      1  N    Isotropic =   230.6507   Anisotropy =    27.3328

      2  C    Isotropic =   147.7505   Anisotropy =    37.7088

      3  C    Isotropic =   152.6020   Anisotropy =    31.2325

      4  C    Isotropic =   163.0875   Anisotropy =    18.5499

      5  C    Isotropic =   160.9495   Anisotropy =    20.8744

      6  C    Isotropic =   161.6406   Anisotropy =    19.8883

      7  C    Isotropic =   158.1290   Anisotropy =    28.8459

      8  C    Isotropic =   145.8853   Anisotropy =    37.6527

      9  N    Isotropic =   232.6297   Anisotropy =    33.1737

     10  H    Isotropic =    31.4910   Anisotropy =    12.6701

     11  H    Isotropic =    31.4915   Anisotropy =    12.6057

     12  H    Isotropic =    29.4668   Anisotropy =     5.4479

     13  H    Isotropic =    29.0367   Anisotropy =     6.1286

     14  H    Isotropic =    30.3027   Anisotropy =     6.5848

     15  H    Isotropic =    30.4433   Anisotropy =     4.8756

     16  H    Isotropic =    30.1357   Anisotropy =     5.2245

     17  H    Isotropic =    30.5550   Anisotropy =     6.9177

     18  H    Isotropic =    30.2491   Anisotropy =     5.3508

     19  H    Isotropic =    30.4855   Anisotropy =     7.0856

     20  H    Isotropic =    30.3043   Anisotropy =     7.4471

     21  H    Isotropic =    30.5800   Anisotropy =     6.2075

     22  H    Isotropic =    30.0803   Anisotropy =     4.6959

     23  H    Isotropic =    30.7274   Anisotropy =     4.7650

     24  H    Isotropic =    29.3527   Anisotropy =     5.1811

     25  H    Isotropic =    28.8907   Anisotropy =     6.0340

     26  H    Isotropic =    31.5773   Anisotropy =    12.0464

     27  H    Isotropic =    31.0633   Anisotropy =    15.6127

  Exact polarizability: 128.150  -1.879 109.565  -0.124  -0.431 105.388
 Approx polarizability: 123.986  -1.539 119.655   0.745  -0.635 116.981

                      1                      2                      3
                      A                      A                      A
 Frequencies --     30.1059                60.8086                70.4358
 Red. masses --      3.6793                 1.6873                 2.2184
 Frc consts  --      0.0020                 0.0037                 0.0065
 IR Inten    --      1.0441                 9.1146                 2.9513

                      4                      5                      6
                      A                      A                      A
 Frequencies --     96.7484               116.4469               133.7313
 Red. masses --      2.2219                 3.0309                 2.5908
 Frc consts  --      0.0123                 0.0242                 0.0273
 IR Inten    --      1.0022                 0.8224                 0.8984

                      7                      8                      9
                      A                      A                      A
 Frequencies --    200.3924               249.9488               261.7026
 Red. masses --      2.0568                 1.9593                 1.5825
 Frc consts  --      0.0487                 0.0721                 0.0639
 IR Inten    --      3.6234                22.1773                22.7259

                     10                     11                     12
                      A                      A                      A
 Frequencies --    270.4151               294.8357               300.0986
 Red. masses --      1.7094                 1.3817                 1.8327
 Frc consts  --      0.0736                 0.0708                 0.0972
 IR Inten    --     29.3257                52.9573                19.5459

                     13                     14                     15
                      A                      A                      A
 Frequencies --    425.3883               438.0998               557.6189
 Red. masses --      3.5582                 2.8679                 2.3276
 Frc consts  --      0.3794                 0.3243                 0.4264
 IR Inten    --      0.4719                16.0240                 1.1121

                     16                     17                     18
                      A                      A                      A
 Frequencies --    739.3888               757.1016               772.9999
 Red. masses --      1.2604                 1.1285                 1.2191
 Frc consts  --      0.4060                 0.3811                 0.4292
 IR Inten    --      4.3370                 7.6886                 3.4644

                     19                     20                     21
                      A                      A                      A
 Frequencies --    824.6209               875.5063               880.3921
 Red. masses --      1.4107                 1.8416                 1.5916
 Frc consts  --      0.5652                 0.8317                 0.7269
 IR Inten    --     14.7467                23.4060                95.3500

                     22                     23                     24
                      A                      A                      A
 Frequencies --    914.2583               940.5255               977.0445
 Red. masses --      1.3722                 1.6101                 2.3551
 Frc consts  --      0.6758                 0.8392                 1.3246
 IR Inten    --    172.9573               115.4033                 1.7558

                     25                     26                     27
                      A                      A                      A
 Frequencies --    985.1518              1020.1637              1048.2233
 Red. masses --      1.6339                 1.8780                 2.1584
 Frc consts  --      0.9343                 1.1516                 1.3973
 IR Inten    --     26.9594                24.9543                 2.8689

                     28                     29                     30
                      A                      A                      A
 Frequencies --   1071.1367              1080.0122              1086.3130
 Red. masses --      1.8730                 2.3936                 2.0783
 Frc consts  --      1.2661                 1.6450                 1.4450
 IR Inten    --     15.5606                13.1037                 4.3352

                     31                     32                     33
                      A                      A                      A
 Frequencies --   1095.1699              1124.6524              1155.8707
 Red. masses --      2.1066                 1.3355                 1.7997
 Frc consts  --      1.4886                 0.9953                 1.4166
 IR Inten    --      2.5604                 6.1302                 8.7159

                     34                     35                     36
                      A                      A                      A
 Frequencies --   1183.6581              1253.6892              1258.1368
 Red. masses --      1.6085                 1.4677                 1.3684
 Frc consts  --      1.3278                 1.3591                 1.2762
 IR Inten    --     10.3051                 0.3627                 4.8317

                     37                     38                     39
                      A                      A                      A
 Frequencies --   1302.6666              1308.7531              1327.7930
 Red. masses --      1.3386                 1.2867                 1.1300
 Frc consts  --      1.3383                 1.2985                 1.1738
 IR Inten    --      2.8734                 4.1798                 0.1454

                     40                     41                     42
                      A                      A                      A
 Frequencies --   1332.2185              1344.1957              1349.2962
 Red. masses --      1.1394                 1.2609                 1.2024
 Frc consts  --      1.1914                 1.3423                 1.2897
 IR Inten    --      2.9357                 8.3166                 5.9758

                     43                     44                     45
                      A                      A                      A
 Frequencies --   1359.5821              1393.1624              1400.8394
 Red. masses --      1.1610                 1.2425                 1.4763
 Frc consts  --      1.2645                 1.4209                 1.7069
 IR Inten    --      3.9804                 0.7887                 0.9638

                     46                     47                     48
                      A                      A                      A
 Frequencies --   1410.3050              1413.0560              1437.0085
 Red. masses --      1.3942                 1.4487                 1.4894
 Frc consts  --      1.6338                 1.7043                 1.8121
 IR Inten    --      1.9337                 1.9763                23.7976

                     49                     50                     51
                      A                      A                      A
 Frequencies --   1482.4685              1488.0307              1492.4757
 Red. masses --      1.0768                 1.0856                 1.0866
 Frc consts  --      1.3943                 1.4163                 1.4261
 IR Inten    --      0.7085                 0.4672                 0.1648

                     52                     53                     54
                      A                      A                      A
 Frequencies --   1504.9861              1507.8788              1509.8447
 Red. masses --      1.0912                 1.0968                 1.0936
 Frc consts  --      1.4562                 1.4693                 1.4688
 IR Inten    --      2.3186                 3.7845                 1.0729

                     55                     56                     57
                      A                      A                      A
 Frequencies --   1527.3643              1656.5737              1660.2235
 Red. masses --      1.0925                 1.0871                 1.0865
 Frc consts  --      1.5016                 1.7577                 1.7645
 IR Inten    --      1.8278                35.3072                31.3083

                     58                     59                     60
                      A                      A                      A
 Frequencies --   2953.3569              3007.1549              3008.4678
 Red. masses --      1.0722                 1.0600                 1.0629
 Frc consts  --      5.5102                 5.6479                 5.6681
 IR Inten    --    118.9032                15.4052                23.8521

                     61                     62                     63
                      A                      A                      A
 Frequencies --   3013.6994              3018.5979              3021.6948
 Red. masses --      1.0651                 1.0623                 1.0627
 Frc consts  --      5.6997                 5.7031                 5.7168
 IR Inten    --     75.7756                37.8103                78.5551

                     64                     65                     66
                      A                      A                      A
 Frequencies --   3028.9639              3043.5459              3044.9874
 Red. masses --      1.0642                 1.0977                 1.0964
 Frc consts  --      5.7528                 5.9912                 5.9893
 IR Inten    --     68.8727                40.3100                10.5172

                     67                     68                     69
                      A                      A                      A
 Frequencies --   3045.8276              3048.7188              3069.0072
 Red. masses --      1.0901                 1.0980                 1.1042
 Frc consts  --      5.9581                 6.0130                 6.1278
 IR Inten    --     56.4347                17.2008               201.3119

                     70                     71                     72
                      A                      A                      A
 Frequencies --   3077.0745              3079.5018              3467.2207
 Red. masses --      1.0998                 1.1030                 1.0502
 Frc consts  --      6.1353                 6.1629                 7.4384
 IR Inten    --     73.7222               167.9418                 1.8218

                     73                     74                     75
                      A                      A                      A
 Frequencies --   3474.6210              3543.8742              3552.2150
 Red. masses --      1.0510                 1.0913                 1.0912
 Frc consts  --      7.4760                 8.0755                 8.1122
 IR Inten    --      2.1436                 0.3302                 0.2814

 - Thermochemistry -
 -------------------
 Temperature   298.150 Kelvin.  Pressure   1.00000 Atm.
 Atom     1 has atomic number  7 and mass  14.00307

 Molecular mass:   130.14700 amu.
 Principal axes and moments of inertia in atomic units:
                           1         2         3
     Eigenvalues --   444.115704168.491544342.47798
           X            0.99999  -0.00117  -0.00532
           Y            0.00118   1.00000   0.00261
           Z            0.00532  -0.00262   0.99998
 This molecule is an asymmetric top.
 Rotational symmetry number  1.
 Warning -- assumption of classical behavior for rotation
           may cause significant error
 Rotational temperatures (Kelvin)      0.19503     0.02078     0.01995
 Rotational constants (GHZ):           4.06367     0.43295     0.41560
 Zero-point vibrational energy     665470.9 (Joules/Mol)
                                  159.05136 (Kcal/Mol)
 Warning -- explicit consideration of  15 degrees of freedom as
           vibrations may cause significant error
 Vibrational temperatures:     43.32    87.49   101.34   139.20   167.54
          (Kelvin)            192.41   288.32   359.62   376.53   389.07
                              424.20   431.77   612.04   630.33   802.29
                             1063.82  1089.30  1112.17  1186.45  1259.66
                             1266.69  1315.41  1353.21  1405.75  1417.41
                             1467.79  1508.16  1541.13  1553.90  1562.96
                             1575.71  1618.12  1663.04  1703.02  1803.78
                             1810.18  1874.25  1883.00  1910.40  1916.77
                             1934.00  1941.34  1956.14  2004.45  2015.50
                             2029.11  2033.07  2067.53  2132.94  2140.94
                             2147.34  2165.34  2169.50  2172.33  2197.54
                             2383.44  2388.69  4249.22  4326.63  4328.51
                             4336.04  4343.09  4347.54  4358.00  4378.98
                             4381.06  4382.27  4386.43  4415.62  4427.22
                             4430.72  4988.56  4999.20  5098.84  5110.85

 Zero-point correction=                           0.253464 (Hartree/Particle)
 Thermal correction to Energy=                    0.265507
 Thermal correction to Enthalpy=                  0.266451
 Thermal correction to Gibbs Free Energy=         0.214276
 Sum of electronic and zero-point Energies=           -386.863245
 Sum of electronic and thermal Energies=              -386.851203
 Sum of electronic and thermal Enthalpies=            -386.850259
 Sum of electronic and thermal Free Energies=         -386.902434

                     E (Thermal)             CV                S
                      KCal/Mol        Cal/Mol-Kelvin    Cal/Mol-Kelvin
 Total                  166.608             42.590            109.811
 Electronic               0.000              0.000              0.000
 Translational            0.889              2.981             40.503
 Rotational               0.889              2.981             30.465
 Vibrational            164.830             36.628             38.843
 Vibration     1          0.594              1.984              5.822
 Vibration     2          0.597              1.973              4.431
 Vibration     3          0.598              1.968              4.141
 Vibration     4          0.603              1.951              3.519
 Vibration     5          0.608              1.936              3.159
 Vibration     6          0.613              1.920              2.892
 Vibration     7          0.638              1.839              2.129
 Vibration     8          0.663              1.763              1.731
 Vibration     9          0.669              1.743              1.650
 Vibration    10          0.674              1.728              1.594
 Vibration    11          0.689              1.683              1.446
 Vibration    12          0.693              1.673              1.416
 Vibration    13          0.787              1.415              0.874
 Vibration    14          0.798              1.387              0.833
 Vibration    15          0.913              1.123              0.529

 Optimization completed.
    -- Stationary point found.
 Normal termination of Gaussian 16 at Tue Jul  9 19:08:02 2024.
 Gaussian 16:  EM64L-G16RevA.03 25-Dec-2016

 ----------------------------------------------------------------------
 # TD(NStates=10, Root=1) B3LYP/6-31G** SCRF=(Solvent=water) volume pop
 =NPA density=current Geom=AllCheck Guess=Read
 ----------------------------------------------------------------------

 Structure from the checkpoint file:  "PWSKHLMYTZNYKO-UHFFFAOYSA-N_conf_0_2.chk"
 ----------------------------------
 PWSKHLMYTZNYKO-UHFFFAOYSA-N_conf_0
 ----------------------------------
 Charge =  0 Multiplicity = 1

                         Standard orientation:
 ---------------------------------------------------------------------
 Center     Atomic      Atomic             Coordinates (Angstroms)
 Number     Number       Type             X           Y           Z
 ---------------------------------------------------------------------
      1          7           0       -4.500764   -0.800574   -0.368844
      2          6           0       -3.035086   -0.690775   -0.301747
      3          6           0       -2.494642    0.366526    0.674042
      4          6           0       -0.961149    0.421665    0.777255
      5          6           0       -0.256026    0.912719   -0.496946
      6          6           0        1.259594    1.121000   -0.343448
      7          6           0        2.061321   -0.164361   -0.099343
      8          6           0        3.570580    0.077796   -0.033930
      9          7           0        4.294200   -1.175549    0.235781
     10          1           0       -4.884061    0.106198   -0.634056
     11          1           0       -4.858775   -0.970109    0.570760
     12          1           0       -2.635858   -1.675369   -0.023508
     13          1           0       -2.672958   -0.488013   -1.316378
     14          1           0       -2.912545    0.158799    1.668889
     15          1           0       -2.878877    1.353894    0.378846
     16          1           0       -0.586883   -0.572911    1.054110
     17          1           0       -0.688423    1.089040    1.606141
     18          1           0       -0.436209    0.210755   -1.321975
     19          1           0       -0.711729    1.864515   -0.802855
     20          1           0        1.640765    1.607800   -1.251342
     21          1           0        1.444923    1.825900    0.479862
     22          1           0        1.746981   -0.646169    0.834011
     23          1           0        1.848131   -0.881729   -0.905932
     24          1           0        3.790245    0.773974    0.785824
     25          1           0        3.894143    0.579876   -0.962610
     26          1           0        4.187308   -1.792980   -0.568327
     27          1           0        5.292221   -0.978026    0.284676
 ---------------------------------------------------------------------

 SCF Done:  E(RB3LYP) =  -387.116709823     A.U. after    1 cycles

 Excitation energies and oscillator strengths:

 Excited State   1:      Singlet-A      7.4671 eV  166.04 nm  f=0.0166  <S**2>=0.000
      37 -> 38         0.56446
      37 -> 39        -0.40319
 This state for optimization and/or second-order correction.
 Total Energy, E(TD-HF/TD-DFT) =  -386.842300238
 Copying the excited state density for this state as the 1-particle RhoCI density.

 Excited State   2:      Singlet-A      7.4811 eV  165.73 nm  f=0.0153  <S**2>=0.000
      36 -> 38         0.37292
      36 -> 39         0.54520
      36 -> 40        -0.23885

 Excited State   3:      Singlet-A      8.1869 eV  151.44 nm  f=0.0060  <S**2>=0.000
      37 -> 38         0.27153
      37 -> 39         0.21794
      37 -> 40         0.58062
      37 -> 42        -0.15683
      37 -> 43        -0.10356

 Excited State   4:      Singlet-A      8.2695 eV  149.93 nm  f=0.0154  <S**2>=0.000
      36 -> 38         0.10319
      36 -> 39         0.22749
      36 -> 40         0.61621
      36 -> 42         0.14225
      36 -> 43         0.18135

 Excited State   5:      Singlet-A      8.4748 eV  146.30 nm  f=0.0019  <S**2>=0.000
      37 -> 38         0.31380
      37 -> 39         0.52827
      37 -> 40        -0.30517
      37 -> 41        -0.12629

 Excited State   6:      Singlet-A      8.4803 eV  146.20 nm  f=0.0007  <S**2>=0.000
      36 -> 38         0.58624
      36 -> 39        -0.37992

 Excited State   7:      Singlet-A      8.5594 eV  144.85 nm  f=0.0209  <S**2>=0.000
      37 -> 41         0.60897
      37 -> 43         0.15221
      37 -> 44         0.24576
      37 -> 45         0.13865

 Excited State   8:      Singlet-A      8.7172 eV  142.23 nm  f=0.0212  <S**2>=0.000
      36 -> 41         0.43480
      36 -> 42         0.38765
      36 -> 43        -0.12653
      36 -> 44        -0.32654
      36 -> 45         0.15372

 Excited State   9:      Singlet-A      8.8453 eV  140.17 nm  f=0.0417  <S**2>=0.000
      37 -> 42         0.55963
      37 -> 43        -0.34561
      37 -> 45        -0.18396

 Excited State  10:      Singlet-A      8.8839 eV  139.56 nm  f=0.0649  <S**2>=0.000
      36 -> 40        -0.15098
      36 -> 41        -0.42798
      36 -> 42         0.49582
      36 -> 45         0.12313
      36 -> 46         0.11924

 The electronic state is 1-A.
 Alpha  occ. eigenvalues --  -14.30888 -14.30803 -10.20023 -10.19966 -10.17544
 Alpha  occ. eigenvalues --  -10.17485 -10.17448 -10.17328 -10.17303  -0.87345
 Alpha  occ. eigenvalues --   -0.87249  -0.79721  -0.75585  -0.70127  -0.64655
 Alpha  occ. eigenvalues --   -0.60543  -0.58199  -0.55609  -0.48920  -0.47852
 Alpha  occ. eigenvalues --   -0.46628  -0.44419  -0.43598  -0.42401  -0.40843
 Alpha  occ. eigenvalues --   -0.40088  -0.38169  -0.36795  -0.35933  -0.34728
 Alpha  occ. eigenvalues --   -0.33276  -0.32888  -0.31706  -0.31009  -0.30474
 Alpha  occ. eigenvalues --   -0.23561  -0.23416
 Alpha virt. eigenvalues --    0.08951   0.08981   0.09674   0.11546   0.11863
 Alpha virt. eigenvalues --    0.12275   0.14000   0.14909   0.16123   0.16751
 Alpha virt. eigenvalues --    0.17655   0.18218   0.18518   0.19664   0.20539

 Mulliken charges:
               1
     1  N   -0.034250
     2  C   -0.093550
     3  C   -0.140082
     4  C   -0.183621
     5  C   -0.179723
     6  C   -0.184821
     7  C   -0.169864
     8  C   -0.051785
     9  N   -0.646000
    10  H   -0.048984
    11  H   -0.048956
    12  H    0.100200
    13  H    0.099643
    14  H    0.052088
    15  H    0.058748
    16  H    0.109165
    17  H    0.114045
    18  H    0.099558
    19  H    0.093470
    20  H    0.092097
    21  H    0.093397
    22  H    0.097567
    23  H    0.091306
    24  H    0.099998
    25  H    0.081167
    26  H    0.248598
    27  H    0.250591
 Sum of Mulliken charges =  -0.00000

 Dipole moment (field-independent basis, Debye):
    X=              2.4550    Y=              0.2302    Z=             -1.8087  Tot=              3.0580
 Quadrupole moment (field-independent basis, Debye-Ang):
   XX=            -65.6341   YY=            -62.0654   ZZ=            -62.4969
   XY=              3.1664   XZ=             -3.3325   YZ=              4.5841

 Summary of Natural Population Analysis:

                                       Natural Population
                Natural  -----------------------------------------------
    Atom  No    Charge         Core      Valence    Rydberg      Total
 -----------------------------------------------------------------------
      N    1   -0.39285      1.99937     5.36307    0.03041     7.39285
      C    2   -0.37008      1.99936     4.34835    0.02238     6.37008
      C    3   -0.47143      1.99926     4.45508    0.01709     6.47143
      C    4   -0.46394      1.99931     4.45260    0.01203     6.46394
      C    5   -0.46370      1.99934     4.45241    0.01196     6.46370
      C    6   -0.46143      1.99933     4.45092    0.01118     6.46143
      C    7   -0.47574      1.99933     4.46487    0.01154     6.47574
      C    8   -0.25706      1.99936     4.24456    0.01314     6.25706
      N    9   -0.92885      1.99968     5.91433    0.01484     7.92885
      H   10    0.16132      0.00000     0.74999    0.08869     0.83868
      H   11    0.16088      0.00000     0.75070    0.08842     0.83912
      H   12    0.23067      0.00000     0.75012    0.01922     0.76933
      H   13    0.22842      0.00000     0.75227    0.01932     0.77158
      H   14    0.21156      0.00000     0.76268    0.02577     0.78844
      H   15    0.20802      0.00000     0.76764    0.02434     0.79198
      H   16    0.23787      0.00000     0.76011    0.00202     0.76213
      H   17    0.25361      0.00000     0.74455    0.00185     0.74639
      H   18    0.23078      0.00000     0.76721    0.00201     0.76922
      H   19    0.23767      0.00000     0.75967    0.00267     0.76233
      H   20    0.23734      0.00000     0.76045    0.00221     0.76266
      H   21    0.23015      0.00000     0.76761    0.00224     0.76985
      H   22    0.23220      0.00000     0.76495    0.00285     0.76780
      H   23    0.22718      0.00000     0.77048    0.00234     0.77282
      H   24    0.22323      0.00000     0.77463    0.00214     0.77677
      H   25    0.20167      0.00000     0.79561    0.00272     0.79833
      H   26    0.38256      0.00000     0.61450    0.00294     0.61744
      H   27    0.38943      0.00000     0.60789    0.00268     0.61057
 =======================================================================
   * Total *   -0.00052     17.99433    55.56722    0.43898    74.00052

 1\1\GINC-CN34\SP\RB3LYP TD-FC\6-31G(d,p)\C7H18N2\QDUEZ\09-Jul-2024\0\\
 # TD(NStates=10, Root=1) B3LYP/6-31G** SCRF=(Solvent=water) volume pop
 =NPA density=current Geom=AllCheck Guess=Read\\PWSKHLMYTZNYKO-UHFFFAOY
 SA-N_conf_0\\0,1\N,0,4.5622469187,0.4239815431,0.6225448734\C,0,3.0999
 64784,0.2648682002,0.5881302149\C,0,2.4940133908,0.0149453031,-0.80201
 0222\C,0,0.9729888267,-0.2125064189,-0.8086759685\C,0,0.1443115657,1.0
 229264382,-0.4227763391\C,0,-1.3742692279,0.8442271549,-0.5840958345\C
 ,0,-2.0034634084,-0.1805941761,0.3689858144\C,0,-3.5246910465,-0.26763

 Normal termination of Gaussian 16 at Tue Jul  9 19:45:19 2024.
