 Gaussian 16, Revision A.03,

 -------------------------------------------------------
 # opt=CalcFc B3LYP/6-31G** SCRF=(Solvent=water) scf=xqc
 -------------------------------------------------------

 ----------------------------------
 PWSKHLMYTZNYKO-UHFFFAOYSA-N_conf_4
 ----------------------------------
 Symbolic Z-matrix:
 Charge =  0 Multiplicity = 1

 SCF Done:  E(RB3LYP) =  -387.115394595     A.U. after   11 cycles
 SCF Done:  E(RB3LYP) =  -387.118084691     A.U. after    9 cycles
 SCF Done:  E(RB3LYP) =  -387.118148861     A.U. after    9 cycles
 SCF Done:  E(RB3LYP) =  -387.118149971     A.U. after    7 cycles
 Optimization completed.
    -- Stationary point found.
 Normal termination of Gaussian 16 at Tue Jul  9 18:31:45 2024.

 ----------------------------------------------------------------------
 # freq B3LYP/6-31G** SCRF=(Solvent=water) volume NMR pop=NPA density=c
 urrent Geom=AllCheck Guess=Read
 ----------------------------------------------------------------------

 Structure from the checkpoint file:  "PWSKHLMYTZNYKO-UHFFFAOYSA-N_conf_4_1.chk"
 ----------------------------------
 PWSKHLMYTZNYKO-UHFFFAOYSA-N_conf_4
 ----------------------------------
 Charge =  0 Multiplicity = 1

 SCF Done:  E(RB3LYP) =  -387.118149971     A.U. after    1 cycles

      1  N    Isotropic =   237.4824   Anisotropy =    41.3394

      2  C    Isotropic =   147.1978   Anisotropy =    25.9755

      3  C    Isotropic =   154.7374   Anisotropy =    27.0031

      4  C    Isotropic =   162.3339   Anisotropy =    24.5685

      5  C    Isotropic =   157.9107   Anisotropy =    32.3919

      6  C    Isotropic =   161.7470   Anisotropy =    25.4738

      7  C    Isotropic =   157.2315   Anisotropy =    23.2936

      8  C    Isotropic =   147.7877   Anisotropy =    23.5250

      9  N    Isotropic =   235.1512   Anisotropy =    26.9582

     10  H    Isotropic =    31.8886   Anisotropy =    13.3483

     11  H    Isotropic =    30.9058   Anisotropy =    11.6511

     12  H    Isotropic =    29.0199   Anisotropy =     8.4342

     13  H    Isotropic =    29.3459   Anisotropy =     7.2297

     14  H    Isotropic =    30.3530   Anisotropy =     6.3639

     15  H    Isotropic =    30.5543   Anisotropy =     5.9292

     16  H    Isotropic =    30.1004   Anisotropy =     5.5101

     17  H    Isotropic =    30.7162   Anisotropy =     5.6010

     18  H    Isotropic =    30.5257   Anisotropy =     5.0341

     19  H    Isotropic =    30.4295   Anisotropy =     5.0386

     20  H    Isotropic =    30.1841   Anisotropy =     5.3058

     21  H    Isotropic =    30.6967   Anisotropy =     5.3768

     22  H    Isotropic =    30.3080   Anisotropy =     6.3397

     23  H    Isotropic =    30.4026   Anisotropy =     6.5822

     24  H    Isotropic =    28.8466   Anisotropy =     7.4754

     25  H    Isotropic =    29.1772   Anisotropy =     7.8894

     26  H    Isotropic =    31.2607   Anisotropy =    11.3018

     27  H    Isotropic =    31.0890   Anisotropy =    15.6715

  Exact polarizability: 125.032  -1.489 112.786  -1.152  -1.132 105.763
 Approx polarizability: 120.702  -0.889 122.768  -0.942  -1.936 117.969

                      1                      2                      3
                      A                      A                      A
 Frequencies --     41.0573                47.3442                75.2055
 Red. masses --      2.5227                 3.4322                 2.7836
 Frc consts  --      0.0025                 0.0045                 0.0093
 IR Inten    --      3.1915                 0.7611                 0.5560

                      4                      5                      6
                      A                      A                      A
 Frequencies --    113.0899               117.4962               157.0347
 Red. masses --      2.8096                 1.8142                 2.2006
 Frc consts  --      0.0212                 0.0148                 0.0320
 IR Inten    --      4.3034                 1.2672                 3.4240

                      7                      8                      9
                      A                      A                      A
 Frequencies --    162.3180               214.9680               238.0199
 Red. masses --      2.2519                 1.4821                 1.9304
 Frc consts  --      0.0350                 0.0404                 0.0644
 IR Inten    --      5.4940                26.5783                27.7448

                     10                     11                     12
                      A                      A                      A
 Frequencies --    284.4493               315.9723               372.8045
 Red. masses --      1.6054                 1.2521                 2.7942
 Frc consts  --      0.0765                 0.0737                 0.2288
 IR Inten    --     42.2919                55.1062                 8.2401

                     13                     14                     15
                      A                      A                      A
 Frequencies --    395.7882               479.3452               526.5694
 Red. masses --      2.6954                 2.2297                 2.3141
 Frc consts  --      0.2488                 0.3019                 0.3780
 IR Inten    --      5.2278                 4.2251                10.1807

                     16                     17                     18
                      A                      A                      A
 Frequencies --    735.4201               751.2193               802.6877
 Red. masses --      1.0774                 1.1703                 1.3179
 Frc consts  --      0.3433                 0.3891                 0.5003
 IR Inten    --      7.0465                 4.3509                 8.0800

                     19                     20                     21
                      A                      A                      A
 Frequencies --    832.8344               858.9002               886.5525
 Red. masses --      1.6861                 1.6338                 2.0736
 Frc consts  --      0.6890                 0.7101                 0.9602
 IR Inten    --     12.4811                84.4066                40.9538

                     22                     23                     24
                      A                      A                      A
 Frequencies --    909.8460               912.8038               959.7468
 Red. masses --      1.5894                 1.3878                 1.6989
 Frc consts  --      0.7752                 0.6813                 0.9220
 IR Inten    --     47.6235               185.7559                79.4398

                     25                     26                     27
                      A                      A                      A
 Frequencies --   1009.7140              1024.7444              1035.7195
 Red. masses --      1.6245                 1.9907                 2.5956
 Frc consts  --      0.9758                 1.2317                 1.6405
 IR Inten    --     27.1781                17.5585                 3.8574

                     28                     29                     30
                      A                      A                      A
 Frequencies --   1060.6221              1065.2369              1084.6503
 Red. masses --      1.7130                 2.1639                 2.3432
 Frc consts  --      1.1353                 1.4467                 1.6242
 IR Inten    --      1.4686                 5.1300                 8.8757

                     31                     32                     33
                      A                      A                      A
 Frequencies --   1110.1526              1136.8380              1174.7609
 Red. masses --      2.0542                 1.6476                 1.4791
 Frc consts  --      1.4916                 1.2546                 1.2027
 IR Inten    --      9.4544                10.1343                15.7598

                     34                     35                     36
                      A                      A                      A
 Frequencies --   1183.0173              1220.9210              1265.1757
 Red. masses --      1.5536                 1.5097                 1.3702
 Frc consts  --      1.2811                 1.3259                 1.2922
 IR Inten    --      5.9915                 5.3350                 1.7009

                     37                     38                     39
                      A                      A                      A
 Frequencies --   1281.0921              1314.5947              1328.1632
 Red. masses --      1.3249                 1.2601                 1.2998
 Frc consts  --      1.2811                 1.2831                 1.3509
 IR Inten    --      4.3647                 3.6741                 0.4330

                     40                     41                     42
                      A                      A                      A
 Frequencies --   1335.7026              1339.3314              1354.5181
 Red. masses --      1.0466                 1.1335                 1.1395
 Frc consts  --      1.1001                 1.1980                 1.2318
 IR Inten    --      0.6210                 1.1650                 5.2801

                     43                     44                     45
                      A                      A                      A
 Frequencies --   1377.4255              1393.9843              1398.1976
 Red. masses --      1.4144                 1.3105                 1.1895
 Frc consts  --      1.5811                 1.5004                 1.3701
 IR Inten    --      0.0266                24.3068                 0.9974

                     46                     47                     48
                      A                      A                      A
 Frequencies --   1410.2927              1414.6804              1431.3962
 Red. masses --      1.4960                 1.6377                 1.4334
 Frc consts  --      1.7530                 1.9311                 1.7304
 IR Inten    --      1.7178                 3.8255                23.5340

                     49                     50                     51
                      A                      A                      A
 Frequencies --   1480.9820              1483.6200              1490.3946
 Red. masses --      1.0865                 1.0822                 1.0861
 Frc consts  --      1.4040                 1.4035                 1.4214
 IR Inten    --      3.1778                 1.3619                 1.1790

                     52                     53                     54
                      A                      A                      A
 Frequencies --   1497.0173              1505.2916              1515.4764
 Red. masses --      1.0908                 1.0984                 1.0874
 Frc consts  --      1.4403                 1.4665                 1.4714
 IR Inten    --      0.2469                 0.2041                 1.9452

                     55                     56                     57
                      A                      A                      A
 Frequencies --   1518.7673              1659.5514              1659.6334
 Red. masses --      1.0996                 1.0883                 1.0865
 Frc consts  --      1.4944                 1.7659                 1.7633
 IR Inten    --      3.7434                29.0559                45.7772

                     58                     59                     60
                      A                      A                      A
 Frequencies --   2951.8696              3005.9363              3007.7932
 Red. masses --      1.0728                 1.0595                 1.0586
 Frc consts  --      5.5076                 5.6402                 5.6423
 IR Inten    --    121.4519                 7.4970                 3.8669

                     61                     62                     63
                      A                      A                      A
 Frequencies --   3009.5925              3015.1376              3022.4499
 Red. masses --      1.0602                 1.0606                 1.0609
 Frc consts  --      5.6580                 5.6808                 5.7098
 IR Inten    --      0.7836               141.1500               115.1341

                     64                     65                     66
                      A                      A                      A
 Frequencies --   3025.7409              3032.3650              3039.4380
 Red. masses --      1.0669                 1.0955                 1.0975
 Frc consts  --      5.7551                 5.9350                 5.9736
 IR Inten    --     46.0511                 9.8429                14.6796

                     67                     68                     69
                      A                      A                      A
 Frequencies --   3049.5077              3060.5429              3061.7349
 Red. masses --      1.1020                 1.0989                 1.0949
 Frc consts  --      6.0379                 6.0644                 6.0470
 IR Inten    --     19.4628                56.7973                95.1511

                     70                     71                     72
                      A                      A                      A
 Frequencies --   3068.7258              3071.1454              3475.8009
 Red. masses --      1.1057                 1.1054                 1.0504
 Frc consts  --      6.1347                 6.1427                 7.4766
 IR Inten    --     58.7763               310.7086                 1.4237

                     73                     74                     75
                      A                      A                      A
 Frequencies --   3485.8409              3556.6857              3560.1892
 Red. masses --      1.0509                 1.0912                 1.0912
 Frc consts  --      7.5239                 8.1331                 8.1491
 IR Inten    --      1.1317                 0.1132                 0.0283

 - Thermochemistry -
 -------------------
 Temperature   298.150 Kelvin.  Pressure   1.00000 Atm.
 Atom     1 has atomic number  7 and mass  14.00307

 Molecular mass:   130.14700 amu.
 Principal axes and moments of inertia in atomic units:
                           1         2         3
     Eigenvalues --   401.492724340.585824592.35616
           X            0.99999  -0.00189  -0.00366
           Y            0.00195   0.99986   0.01667
           Z            0.00363  -0.01667   0.99985
 This molecule is an asymmetric top.
 Rotational symmetry number  1.
 Rotational temperatures (Kelvin)      0.21573     0.01995     0.01886
 Rotational constants (GHZ):           4.49508     0.41578     0.39299
 Zero-point vibrational energy     665444.5 (Joules/Mol)
                                  159.04506 (Kcal/Mol)
 Warning -- explicit consideration of  15 degrees of freedom as
           vibrations may cause significant error
 Vibrational temperatures:     59.07    68.12   108.20   162.71   169.05
          (Kelvin)            225.94   233.54   309.29   342.46   409.26
                              454.61   536.38   569.45   689.67   757.62
                             1058.11  1080.84  1154.89  1198.26  1235.77
                             1275.55  1309.07  1313.32  1380.86  1452.75
                             1474.38  1490.17  1526.00  1532.64  1560.57
                             1597.26  1635.66  1690.22  1702.10  1756.63
                             1820.31  1843.21  1891.41  1910.93  1921.78
                             1927.00  1948.85  1981.81  2005.63  2011.69
                             2029.10  2035.41  2059.46  2130.80  2134.60
                             2144.35  2153.87  2165.78  2180.43  2185.17
                             2387.72  2387.84  4247.08  4324.87  4327.54
                             4330.13  4338.11  4348.63  4353.37  4362.90
                             4373.07  4387.56  4403.44  4405.15  4415.21
                             4418.69  5000.90  5015.35  5117.28  5122.32

 Zero-point correction=                           0.253454 (Hartree/Particle)
 Thermal correction to Energy=                    0.265452
 Thermal correction to Enthalpy=                  0.266397
 Thermal correction to Gibbs Free Energy=         0.214481
 Sum of electronic and zero-point Energies=           -386.864696
 Sum of electronic and thermal Energies=              -386.852698
 Sum of electronic and thermal Enthalpies=            -386.851753
 Sum of electronic and thermal Free Energies=         -386.903669

                     E (Thermal)             CV                S
                      KCal/Mol        Cal/Mol-Kelvin    Cal/Mol-Kelvin
 Total                  166.574             42.550            109.265
 Electronic               0.000              0.000              0.000
 Translational            0.889              2.981             40.503
 Rotational               0.889              2.981             30.460
 Vibrational            164.796             36.588             38.302
 Vibration     1          0.594              1.981              5.207
 Vibration     2          0.595              1.979              4.925
 Vibration     3          0.599              1.966              4.012
 Vibration     4          0.607              1.939              3.215
 Vibration     5          0.608              1.935              3.141
 Vibration     6          0.621              1.895              2.585
 Vibration     7          0.622              1.889              2.523
 Vibration     8          0.645              1.818              2.001
 Vibration     9          0.656              1.782              1.818
 Vibration    10          0.683              1.703              1.507
 Vibration    11          0.703              1.643              1.331
 Vibration    12          0.744              1.528              1.068
 Vibration    13          0.763              1.479              0.978
 Vibration    14          0.836              1.296              0.712
 Vibration    15          0.882              1.191              0.595

 Optimization completed.
    -- Stationary point found.
 Normal termination of Gaussian 16 at Tue Jul  9 19:01:42 2024.
 Gaussian 16:  EM64L-G16RevA.03 25-Dec-2016

 ----------------------------------------------------------------------
 # TD(NStates=10, Root=1) B3LYP/6-31G** SCRF=(Solvent=water) volume pop
 =NPA density=current Geom=AllCheck Guess=Read
 ----------------------------------------------------------------------

 Structure from the checkpoint file:  "PWSKHLMYTZNYKO-UHFFFAOYSA-N_conf_4_2.chk"
 ----------------------------------
 PWSKHLMYTZNYKO-UHFFFAOYSA-N_conf_4
 ----------------------------------
 Charge =  0 Multiplicity = 1

                         Standard orientation:
 ---------------------------------------------------------------------
 Center     Atomic      Atomic             Coordinates (Angstroms)
 Number     Number       Type             X           Y           Z
 ---------------------------------------------------------------------
      1          7           0        4.126843    1.263090   -0.171579
      2          6           0        3.866147   -0.107565    0.294355
      3          6           0        2.569882   -0.772949   -0.200177
      4          6           0        1.284831   -0.082375    0.272260
      5          6           0        0.005711   -0.767281   -0.224710
      6          6           0       -1.281679   -0.078190    0.245117
      7          6           0       -2.556308   -0.767177   -0.260126
      8          6           0       -3.857431   -0.140077    0.250878
      9          7           0       -4.037465    1.232941   -0.251876
     10          1           0        4.087052    1.279456   -1.190177
     11          1           0        3.372203    1.874071    0.135148
     12          1           0        4.719585   -0.727676   -0.006622
     13          1           0        3.869077   -0.091021    1.392265
     14          1           0        2.564539   -1.818436    0.139363
     15          1           0        2.584809   -0.807807   -1.299458
     16          1           0        1.282462    0.963184   -0.065533
     17          1           0        1.275944   -0.048951    1.371456
     18          1           0        0.017280   -0.802226   -1.323418
     19          1           0       -0.000058   -1.813826    0.111906
     20          1           0       -1.266834    0.967198   -0.092320
     21          1           0       -1.297131   -0.047894    1.344389
     22          1           0       -2.567320   -0.757236   -1.358160
     23          1           0       -2.539344   -1.821851    0.046413
     24          1           0       -3.877299   -0.207208    1.353093
     25          1           0       -4.703249   -0.736366   -0.111167
     26          1           0       -3.378251    1.849681    0.219270
     27          1           0       -4.956030    1.568376    0.032152
 ---------------------------------------------------------------------

 SCF Done:  E(RB3LYP) =  -387.118149971     A.U. after    1 cycles

 Excitation energies and oscillator strengths:

 Excited State   1:      Singlet-A      7.4000 eV  167.55 nm  f=0.0181  <S**2>=0.000
      36 -> 38         0.24643
      36 -> 39         0.58502
      36 -> 40        -0.11417
      37 -> 38        -0.12787
      37 -> 39        -0.24134
 This state for optimization and/or second-order correction.
 Total Energy, E(TD-HF/TD-DFT) =  -386.846205303
 Copying the excited state density for this state as the 1-particle RhoCI density.

 Excited State   2:      Singlet-A      7.4047 eV  167.44 nm  f=0.0238  <S**2>=0.000
      36 -> 38         0.23622
      37 -> 38         0.57208
      37 -> 39        -0.28775
      37 -> 40        -0.11665

 Excited State   3:      Singlet-A      8.2594 eV  150.11 nm  f=0.0001  <S**2>=0.000
      36 -> 38         0.41932
      36 -> 39        -0.33039
      37 -> 38        -0.36875
      37 -> 39        -0.23692
      37 -> 40        -0.11036

 Excited State   4:      Singlet-A      8.2680 eV  149.96 nm  f=0.0017  <S**2>=0.000
      36 -> 38         0.44680
      37 -> 38         0.11159
      37 -> 39         0.51741

 Excited State   5:      Singlet-A      8.5338 eV  145.29 nm  f=0.0275  <S**2>=0.000
      36 -> 43        -0.23024
      37 -> 40         0.48661
      37 -> 41         0.35273
      37 -> 42         0.13533
      37 -> 43        -0.20374

 Excited State   6:      Singlet-A      8.5562 eV  144.91 nm  f=0.0500  <S**2>=0.000
      36 -> 40         0.47015
      36 -> 41         0.31940
      36 -> 42         0.16290
      36 -> 43         0.24165
      37 -> 43        -0.25422

 Excited State   7:      Singlet-A      8.6308 eV  143.65 nm  f=0.0587  <S**2>=0.000
      36 -> 40        -0.11599
      36 -> 42         0.12866
      37 -> 39         0.12517
      37 -> 40        -0.37956
      37 -> 41         0.28031
      37 -> 42         0.38172
      37 -> 44        -0.19988

 Excited State   8:      Singlet-A      8.6963 eV  142.57 nm  f=0.0052  <S**2>=0.000
      36 -> 39        -0.13176
      36 -> 40        -0.40618
      36 -> 41         0.41574
      36 -> 42         0.10823
      36 -> 43         0.10042
      36 -> 45        -0.15612
      37 -> 40         0.13193
      37 -> 41        -0.19749

 Excited State   9:      Singlet-A      8.7635 eV  141.48 nm  f=0.0222  <S**2>=0.000
      36 -> 40         0.12773
      36 -> 41        -0.21162
      36 -> 42         0.12907
      37 -> 40         0.15923
      37 -> 41        -0.40306
      37 -> 42         0.41416
      37 -> 44        -0.14438
      37 -> 45        -0.13758

 Excited State  10:      Singlet-A      8.9832 eV  138.02 nm  f=0.0635  <S**2>=0.000
      36 -> 41        -0.25015
      36 -> 42         0.54649
      36 -> 44         0.21817
      37 -> 42        -0.20520
      37 -> 44        -0.11673

 The electronic state is 1-A.
 Alpha  occ. eigenvalues --  -14.30925 -14.30803 -10.20088 -10.20071 -10.17481
 Alpha  occ. eigenvalues --  -10.17464 -10.17450 -10.17347 -10.17329  -0.87378
 Alpha  occ. eigenvalues --   -0.87279  -0.79596  -0.75547  -0.70557  -0.65312
 Alpha  occ. eigenvalues --   -0.59944  -0.57024  -0.56354  -0.48574  -0.48049
 Alpha  occ. eigenvalues --   -0.47520  -0.45501  -0.42637  -0.42055  -0.41258
 Alpha  occ. eigenvalues --   -0.39850  -0.38433  -0.36981  -0.35489  -0.34841
 Alpha  occ. eigenvalues --   -0.33306  -0.32460  -0.31856  -0.31625  -0.30297
 Alpha  occ. eigenvalues --   -0.23614  -0.23472
 Alpha virt. eigenvalues --    0.08386   0.08481   0.10761   0.11562   0.12147
 Alpha virt. eigenvalues --    0.12785   0.14467   0.14762   0.15837   0.17123
 Alpha virt. eigenvalues --    0.17594   0.17909   0.18906   0.19676   0.20165

 Mulliken charges:
               1
     1  N   -0.635338
     2  C   -0.065744
     3  C   -0.180596
     4  C   -0.172569
     5  C   -0.185558
     6  C   -0.124886
     7  C   -0.171651
     8  C   -0.093519
     9  N   -0.043968
    10  H    0.247876
    11  H    0.250972
    12  H    0.098028
    13  H    0.099925
    14  H    0.088254
    15  H    0.089015
    16  H    0.084963
    17  H    0.089150
    18  H    0.086838
    19  H    0.087239
    20  H    0.016262
    21  H    0.057027
    22  H    0.104616
    23  H    0.087605
    24  H    0.120351
    25  H    0.083810
    26  H   -0.005947
    27  H   -0.012155
 Sum of Mulliken charges =  -0.00000

 Dipole moment (field-independent basis, Debye):
    X=             -2.3968    Y=             -1.5215    Z=             -0.8827  Tot=              2.9730
 Quadrupole moment (field-independent basis, Debye-Ang):
   XX=            -72.2737   YY=            -63.2187   ZZ=            -59.0979
   XY=             -0.8504   XZ=             -2.6335   YZ=             -2.1307

 Summary of Natural Population Analysis:

                                       Natural Population
                Natural  -----------------------------------------------
    Atom  No    Charge         Core      Valence    Rydberg      Total
 -----------------------------------------------------------------------
      N    1   -0.92620      1.99971     5.91140    0.01509     7.92620
      C    2   -0.26596      1.99936     4.25061    0.01598     6.26596
      C    3   -0.48021      1.99932     4.47088    0.01000     6.48021
      C    4   -0.46292      1.99933     4.45236    0.01123     6.46292
      C    5   -0.46247      1.99934     4.45030    0.01283     6.46247
      C    6   -0.47941      1.99933     4.46266    0.01742     6.47941
      C    7   -0.47267      1.99931     4.46210    0.01126     6.47267
      C    8   -0.35633      1.99929     4.33930    0.01774     6.35633
      N    9   -0.37322      1.99933     5.34935    0.02454     7.37322
      H   10    0.38243      0.00000     0.61449    0.00308     0.61757
      H   11    0.38382      0.00000     0.61340    0.00278     0.61618
      H   12    0.22848      0.00000     0.76959    0.00193     0.77152
      H   13    0.22288      0.00000     0.77494    0.00218     0.77712
      H   14    0.23418      0.00000     0.76337    0.00245     0.76582
      H   15    0.22703      0.00000     0.77051    0.00246     0.77297
      H   16    0.22422      0.00000     0.77271    0.00307     0.77578
      H   17    0.22818      0.00000     0.76943    0.00240     0.77182
      H   18    0.22666      0.00000     0.77080    0.00254     0.77334
      H   19    0.22715      0.00000     0.77030    0.00256     0.77285
      H   20    0.17772      0.00000     0.79649    0.02579     0.82228
      H   21    0.21221      0.00000     0.77588    0.01191     0.78779
      H   22    0.24049      0.00000     0.75357    0.00594     0.75951
      H   23    0.22745      0.00000     0.76439    0.00816     0.77255
      H   24    0.25657      0.00000     0.71369    0.02974     0.74343
      H   25    0.21578      0.00000     0.76064    0.02358     0.78422
      H   26    0.18478      0.00000     0.73355    0.08168     0.81522
      H   27    0.17792      0.00000     0.73893    0.08316     0.82208
 =======================================================================
   * Total *   -0.00144     17.99432    55.57563    0.43148    74.00144

 1\1\GINC-CN34\SP\RB3LYP TD-FC\6-31G(d,p)\C7H18N2\QDUEZ\09-Jul-2024\0\\
 # TD(NStates=10, Root=1) B3LYP/6-31G** SCRF=(Solvent=water) volume pop
 =NPA density=current Geom=AllCheck Guess=Read\\PWSKHLMYTZNYKO-UHFFFAOY
 SA-N_conf_4\\0,1\N,0,-4.1996171915,0.9766219712,0.4959998985\C,0,-3.86
 24047341,0.1592569417,-0.6795658835\C,0,-2.5779511232,-0.6834702238,-0
 .5924373883\C,0,-1.290160387,0.1386958546,-0.4617295186\C,0,-0.0222846
 543,-0.7209097482,-0.3856148696\C,0,1.2677237081,0.0984766297,-0.25355
 0833\C,0,2.5307350417,-0.7693168109,-0.1736212826\C,0,3.8392116629,0.0

 Normal termination of Gaussian 16 at Tue Jul  9 19:39:47 2024.
