 Gaussian 16, Revision A.03,

 -------------------------------------------------------
 # opt=CalcFc B3LYP/6-31G** SCRF=(Solvent=water) scf=xqc
 -------------------------------------------------------

 ----------------------------------
 PWSKHLMYTZNYKO-UHFFFAOYSA-N_conf_2
 ----------------------------------
 Symbolic Z-matrix:
 Charge =  0 Multiplicity = 1

 SCF Done:  E(RB3LYP) =  -387.111940040     A.U. after   11 cycles
 SCF Done:  E(RB3LYP) =  -387.114861976     A.U. after    9 cycles
 SCF Done:  E(RB3LYP) =  -387.114936868     A.U. after    9 cycles
 SCF Done:  E(RB3LYP) =  -387.114939025     A.U. after    8 cycles
 SCF Done:  E(RB3LYP) =  -387.114939078     A.U. after    6 cycles
 Optimization completed.
    -- Stationary point found.
 Normal termination of Gaussian 16 at Tue Jul  9 18:36:04 2024.

 ----------------------------------------------------------------------
 # freq B3LYP/6-31G** SCRF=(Solvent=water) volume NMR pop=NPA density=c
 urrent Geom=AllCheck Guess=Read
 ----------------------------------------------------------------------

 Structure from the checkpoint file:  "PWSKHLMYTZNYKO-UHFFFAOYSA-N_conf_2_1.chk"
 ----------------------------------
 PWSKHLMYTZNYKO-UHFFFAOYSA-N_conf_2
 ----------------------------------
 Charge =  0 Multiplicity = 1

 SCF Done:  E(RB3LYP) =  -387.114939078     A.U. after    1 cycles

      1  N    Isotropic =   233.6088   Anisotropy =    32.2140

      2  C    Isotropic =   148.1092   Anisotropy =    36.5065

      3  C    Isotropic =   157.7201   Anisotropy =    25.0247

      4  C    Isotropic =   163.1922   Anisotropy =    17.1547

      5  C    Isotropic =   161.1880   Anisotropy =    18.2794

      6  C    Isotropic =   163.2523   Anisotropy =    18.5749

      7  C    Isotropic =   159.6556   Anisotropy =    19.2514

      8  C    Isotropic =   147.4966   Anisotropy =    24.7290

      9  N    Isotropic =   234.1079   Anisotropy =    32.6136

     10  H    Isotropic =    31.0931   Anisotropy =    15.4129

     11  H    Isotropic =    31.7039   Anisotropy =    12.2979

     12  H    Isotropic =    28.5285   Anisotropy =     7.0431

     13  H    Isotropic =    29.4838   Anisotropy =     5.2639

     14  H    Isotropic =    30.1413   Anisotropy =     6.9993

     15  H    Isotropic =    30.5017   Anisotropy =     5.0994

     16  H    Isotropic =    29.9738   Anisotropy =     6.9367

     17  H    Isotropic =    30.6741   Anisotropy =     5.8938

     18  H    Isotropic =    30.7353   Anisotropy =     5.7994

     19  H    Isotropic =    30.0223   Anisotropy =     7.3122

     20  H    Isotropic =    30.7593   Anisotropy =     6.4441

     21  H    Isotropic =    29.5240   Anisotropy =     7.3991

     22  H    Isotropic =    30.0881   Anisotropy =     6.0843

     23  H    Isotropic =    30.7322   Anisotropy =     5.9461

     24  H    Isotropic =    29.3970   Anisotropy =     6.4923

     25  H    Isotropic =    28.6093   Anisotropy =     8.5105

     26  H    Isotropic =    31.8146   Anisotropy =    12.6014

     27  H    Isotropic =    31.1534   Anisotropy =    15.4900

  Exact polarizability: 128.820   0.394 105.074   0.901   0.530 109.838
 Approx polarizability: 123.424  -0.708 114.656   0.667   0.627 122.183

                      1                      2                      3
                      A                      A                      A
 Frequencies --     31.8565                42.4178                72.1657
 Red. masses --      3.0887                 2.5206                 3.6935
 Frc consts  --      0.0018                 0.0027                 0.0113
 IR Inten    --      1.4575                 4.1829                 2.1893

                      4                      5                      6
                      A                      A                      A
 Frequencies --     80.7225               136.9925               145.0019
 Red. masses --      2.2585                 2.6871                 2.4410
 Frc consts  --      0.0087                 0.0297                 0.0302
 IR Inten    --      6.4813                 1.3061                 6.5634

                      7                      8                      9
                      A                      A                      A
 Frequencies --    220.2575               240.3903               248.4508
 Red. masses --      1.5926                 1.5189                 1.7852
 Frc consts  --      0.0455                 0.0517                 0.0649
 IR Inten    --     37.8080                27.1809                 5.0773

                     10                     11                     12
                      A                      A                      A
 Frequencies --    268.9216               283.4332               316.0542
 Red. masses --      1.4757                 1.4236                 2.5269
 Frc consts  --      0.0629                 0.0674                 0.1487
 IR Inten    --     30.1224                28.6121                20.9700

                     13                     14                     15
                      A                      A                      A
 Frequencies --    402.8346               491.7905               562.9798
 Red. masses --      3.1448                 2.6775                 2.3454
 Frc consts  --      0.3007                 0.3815                 0.4380
 IR Inten    --      9.4867                 5.8364                 7.3868

                     16                     17                     18
                      A                      A                      A
 Frequencies --    730.8094               755.9879               791.5507
 Red. masses --      1.2163                 1.3233                 1.2180
 Frc consts  --      0.3827                 0.4456                 0.4496
 IR Inten    --      7.1005                 3.7918                 1.5808

                     19                     20                     21
                      A                      A                      A
 Frequencies --    837.8101               860.0170               890.8098
 Red. masses --      1.7302                 1.7332                 1.4325
 Frc consts  --      0.7156                 0.7553                 0.6697
 IR Inten    --     25.9022               130.9228                56.0946

                     22                     23                     24
                      A                      A                      A
 Frequencies --    906.8672               928.9653               953.1175
 Red. masses --      1.8346                 1.6773                 1.9323
 Frc consts  --      0.8889                 0.8528                 1.0342
 IR Inten    --      4.7911               144.0481                11.6611

                     25                     26                     27
                      A                      A                      A
 Frequencies --   1004.1324              1012.1637              1044.4011
 Red. masses --      1.4431                 1.5747                 2.6426
 Frc consts  --      0.8573                 0.9505                 1.6983
 IR Inten    --     25.4163                 7.5618                 3.7199

                     28                     29                     30
                      A                      A                      A
 Frequencies --   1067.4129              1075.7789              1090.9274
 Red. masses --      1.6828                 2.2826                 1.3522
 Frc consts  --      1.1297                 1.5564                 0.9482
 IR Inten    --      2.8447                 3.8325                 5.7066

                     31                     32                     33
                      A                      A                      A
 Frequencies --   1099.2610              1112.6849              1141.8036
 Red. masses --      2.3080                 1.7848                 1.6820
 Frc consts  --      1.6432                 1.3019                 1.2920
 IR Inten    --      4.3990                 9.1821                20.0059

                     34                     35                     36
                      A                      A                      A
 Frequencies --   1212.3363              1240.1996              1264.2483
 Red. masses --      1.6646                 1.2857                 1.3807
 Frc consts  --      1.4415                 1.1651                 1.3002
 IR Inten    --      0.8155                 3.7160                 4.4809

                     37                     38                     39
                      A                      A                      A
 Frequencies --   1283.5827              1310.3757              1321.6719
 Red. masses --      1.3353                 1.2932                 1.2110
 Frc consts  --      1.2962                 1.3083                 1.2464
 IR Inten    --      5.2394                 1.0138                 0.8293

                     40                     41                     42
                      A                      A                      A
 Frequencies --   1337.0139              1338.1952              1348.5057
 Red. masses --      1.2269                 1.1419                 1.1204
 Frc consts  --      1.2922                 1.2048                 1.2005
 IR Inten    --      4.3955                 4.0073                 3.3324

                     43                     44                     45
                      A                      A                      A
 Frequencies --   1360.1660              1375.6747              1406.7268
 Red. masses --      1.1928                 1.3229                 1.5826
 Frc consts  --      1.3001                 1.4751                 1.8452
 IR Inten    --      2.1527                 1.9878                 0.7680

                     46                     47                     48
                      A                      A                      A
 Frequencies --   1413.6384              1429.1520              1439.0782
 Red. masses --      1.5169                 1.4088                 1.4784
 Frc consts  --      1.7861                 1.6953                 1.8039
 IR Inten    --      0.2139                22.5385                 9.7993

                     49                     50                     51
                      A                      A                      A
 Frequencies --   1483.8412              1488.8469              1496.0269
 Red. masses --      1.0788                 1.0850                 1.0913
 Frc consts  --      1.3995                 1.4170                 1.4390
 IR Inten    --      0.5120                 0.2578                 2.9076

                     52                     53                     54
                      A                      A                      A
 Frequencies --   1507.3950              1508.6877              1518.3223
 Red. masses --      1.0933                 1.0997                 1.0887
 Frc consts  --      1.4636                 1.4747                 1.4787
 IR Inten    --      5.7302                 2.2567                 2.4668

                     55                     56                     57
                      A                      A                      A
 Frequencies --   1526.6645              1654.7357              1656.7993
 Red. masses --      1.0904                 1.0876                 1.0867
 Frc consts  --      1.4974                 1.7546                 1.7575
 IR Inten    --      1.2374                34.3955                36.4374

                     58                     59                     60
                      A                      A                      A
 Frequencies --   2960.7590              2975.1109              3007.4359
 Red. masses --      1.0721                 1.0699                 1.0677
 Frc consts  --      5.5372                 5.5796                 5.6898
 IR Inten    --    137.3530               106.0681                 8.0931

                     61                     62                     63
                      A                      A                      A
 Frequencies --   3009.5486              3010.8060              3015.2113
 Red. masses --      1.0663                 1.0688                 1.0663
 Frc consts  --      5.6902                 5.7082                 5.7117
 IR Inten    --     31.6523                16.5282                14.8971

                     64                     65                     66
                      A                      A                      A
 Frequencies --   3019.7381              3041.9016              3046.4874
 Red. masses --      1.0631                 1.0892                 1.0892
 Frc consts  --      5.7117                 5.9379                 5.9560
 IR Inten    --    163.8577                52.4108                60.3454

                     67                     68                     69
                      A                      A                      A
 Frequencies --   3052.5175              3064.3665              3065.3399
 Red. masses --      1.0948                 1.0925                 1.1001
 Frc consts  --      6.0106                 6.0444                 6.0904
 IR Inten    --     15.0802                29.9961               158.6622

                     70                     71                     72
                      A                      A                      A
 Frequencies --   3073.4383              3085.5877              3472.9734
 Red. masses --      1.0995                 1.0955                 1.0510
 Frc consts  --      6.1191                 6.1455                 7.4692
 IR Inten    --    142.1331               108.2051                 2.2028

                     73                     74                     75
                      A                      A                      A
 Frequencies --   3476.0171              3550.3119              3555.2643
 Red. masses --      1.0510                 1.0911                 1.0913
 Frc consts  --      7.4817                 8.1031                 8.1271
 IR Inten    --      1.5018                 0.3039                 0.0867

 - Thermochemistry -
 -------------------
 Temperature   298.150 Kelvin.  Pressure   1.00000 Atm.
 Atom     1 has atomic number  7 and mass  14.00307

 Molecular mass:   130.14700 amu.
 Principal axes and moments of inertia in atomic units:
                           1         2         3
     Eigenvalues --   282.854674372.073514486.85962
           X            0.99998   0.00574   0.00031
           Y           -0.00574   0.99998  -0.00049
           Z           -0.00031   0.00049   1.00000
 This molecule is an asymmetric top.
 Rotational symmetry number  1.
 Rotational temperatures (Kelvin)      0.30621     0.01981     0.01930
 Rotational constants (GHZ):           6.38045     0.41279     0.40223
 Zero-point vibrational energy     665443.5 (Joules/Mol)
                                  159.04482 (Kcal/Mol)
 Warning -- explicit consideration of  15 degrees of freedom as
           vibrations may cause significant error
 Vibrational temperatures:     45.83    61.03   103.83   116.14   197.10
          (Kelvin)            208.63   316.90   345.87   357.47   386.92
                              407.80   454.73   579.59   707.58   810.00
                             1051.47  1087.70  1138.86  1205.42  1237.37
                             1281.68  1304.78  1336.57  1371.32  1444.72
                             1456.28  1502.66  1535.77  1547.81  1569.60
                             1581.59  1600.91  1642.80  1744.28  1784.37
                             1818.97  1846.79  1885.34  1901.59  1923.66
                             1925.36  1940.20  1956.98  1979.29  2023.97
                             2033.91  2056.23  2070.51  2134.92  2142.12
                             2152.45  2168.81  2170.67  2184.53  2196.53
                             2380.80  2383.76  4259.87  4280.52  4327.03
                             4330.07  4331.88  4338.22  4344.73  4376.62
                             4383.22  4391.89  4408.94  4410.34  4421.99
                             4439.47  4996.83  5001.21  5108.11  5115.23

 Zero-point correction=                           0.253454 (Hartree/Particle)
 Thermal correction to Energy=                    0.265477
 Thermal correction to Enthalpy=                  0.266421
 Thermal correction to Gibbs Free Energy=         0.214260
 Sum of electronic and zero-point Energies=           -386.861485
 Sum of electronic and thermal Energies=              -386.849462
 Sum of electronic and thermal Enthalpies=            -386.848518
 Sum of electronic and thermal Free Energies=         -386.900679

                     E (Thermal)             CV                S
                      KCal/Mol        Cal/Mol-Kelvin    Cal/Mol-Kelvin
 Total                  166.589             42.525            109.782
 Electronic               0.000              0.000              0.000
 Translational            0.889              2.981             40.503
 Rotational               0.889              2.981             30.096
 Vibrational            164.812             36.564             39.182
 Vibration     1          0.594              1.983              5.710
 Vibration     2          0.595              1.980              5.143
 Vibration     3          0.598              1.967              4.093
 Vibration     4          0.600              1.962              3.873
 Vibration     5          0.614              1.916              2.845
 Vibration     6          0.616              1.908              2.737
 Vibration     7          0.647              1.810              1.957
 Vibration     8          0.657              1.779              1.800
 Vibration     9          0.662              1.765              1.742
 Vibration    10          0.673              1.730              1.603
 Vibration    11          0.682              1.704              1.513
 Vibration    12          0.703              1.643              1.330
 Vibration    13          0.768              1.464              0.952
 Vibration    14          0.848              1.268              0.679
 Vibration    15          0.919              1.111              0.518

 Optimization completed.
    -- Stationary point found.
 Normal termination of Gaussian 16 at Tue Jul  9 19:06:43 2024.
 Gaussian 16:  EM64L-G16RevA.03 25-Dec-2016

 ----------------------------------------------------------------------
 # TD(NStates=10, Root=1) B3LYP/6-31G** SCRF=(Solvent=water) volume pop
 =NPA density=current Geom=AllCheck Guess=Read
 ----------------------------------------------------------------------

 Structure from the checkpoint file:  "PWSKHLMYTZNYKO-UHFFFAOYSA-N_conf_2_2.chk"
 ----------------------------------
 PWSKHLMYTZNYKO-UHFFFAOYSA-N_conf_2
 ----------------------------------
 Charge =  0 Multiplicity = 1

                         Standard orientation:
 ---------------------------------------------------------------------
 Center     Atomic      Atomic             Coordinates (Angstroms)
 Number     Number       Type             X           Y           Z
 ---------------------------------------------------------------------
      1          7           0       -4.703296   -0.219449   -0.166697
      2          6           0       -3.322895   -0.370891    0.326071
      3          6           0       -2.414727    0.700955   -0.282894
      4          6           0       -0.970744    0.697971    0.245799
      5          6           0       -0.137757   -0.526693   -0.164552
      6          6           0        1.306100   -0.524547    0.364356
      7          6           0        2.198594    0.585992   -0.206221
      8          6           0        3.663107    0.499388    0.239238
      9          7           0        4.306748   -0.731150   -0.250435
     10          1           0       -5.284996   -0.942866    0.252814
     11          1           0       -4.715029   -0.421008   -1.166076
     12          1           0       -2.903837   -1.371608    0.132408
     13          1           0       -3.341283   -0.247640    1.416913
     14          1           0       -2.872100    1.679124   -0.088441
     15          1           0       -2.400775    0.580543   -1.376394
     16          1           0       -0.475020    1.608875   -0.110799
     17          1           0       -0.986698    0.772269    1.343063
     18          1           0       -0.120883   -0.597031   -1.262176
     19          1           0       -0.632933   -1.439484    0.188945
     20          1           0        1.289716   -0.442661    1.461235
     21          1           0        1.771163   -1.490270    0.138141
     22          1           0        1.815021    1.571441    0.084873
     23          1           0        2.159771    0.557700   -1.305783
     24          1           0        3.707351    0.484684    1.336090
     25          1           0        4.184136    1.417418   -0.081230
     26          1           0        4.386519   -0.675393   -1.265119
     27          1           0        5.265648   -0.762951    0.090682
 ---------------------------------------------------------------------

 SCF Done:  E(RB3LYP) =  -387.114939078     A.U. after    1 cycles

 Excitation energies and oscillator strengths:

 Excited State   1:      Singlet-A      7.3947 eV  167.67 nm  f=0.0172  <S**2>=0.000
      36 -> 38        -0.22435
      37 -> 38         0.60046
      37 -> 39         0.19018
      37 -> 40        -0.17468
 This state for optimization and/or second-order correction.
 Total Energy, E(TD-HF/TD-DFT) =  -386.843190596
 Copying the excited state density for this state as the 1-particle RhoCI density.

 Excited State   2:      Singlet-A      7.4811 eV  165.73 nm  f=0.0167  <S**2>=0.000
      36 -> 38        -0.29625
      36 -> 39         0.56469
      36 -> 40        -0.11571
      37 -> 38        -0.10954
      37 -> 39         0.24304

 Excited State   3:      Singlet-A      8.1964 eV  151.27 nm  f=0.0264  <S**2>=0.000
      36 -> 38         0.30656
      36 -> 39         0.25975
      36 -> 40         0.46470
      37 -> 38         0.13292
      37 -> 39         0.13397
      37 -> 40         0.26864

 Excited State   4:      Singlet-A      8.3914 eV  147.75 nm  f=0.0129  <S**2>=0.000
      36 -> 38        -0.12757
      36 -> 39        -0.11913
      36 -> 40        -0.26145
      37 -> 38         0.10080
      37 -> 39         0.16421
      37 -> 40         0.57457
      37 -> 43        -0.13841

 Excited State   5:      Singlet-A      8.4496 eV  146.73 nm  f=0.0156  <S**2>=0.000
      36 -> 38         0.47280
      36 -> 39         0.18506
      36 -> 40        -0.40213
      37 -> 38         0.22680

 Excited State   6:      Singlet-A      8.4672 eV  146.43 nm  f=0.0024  <S**2>=0.000
      36 -> 38         0.15327
      36 -> 39        -0.22492
      37 -> 38        -0.20838
      37 -> 39         0.58379
      37 -> 40        -0.11009
      37 -> 42        -0.11583

 Excited State   7:      Singlet-A      8.6596 eV  143.18 nm  f=0.0102  <S**2>=0.000
      36 -> 42        -0.13900
      36 -> 44        -0.14631
      37 -> 39         0.10303
      37 -> 40        -0.10917
      37 -> 42         0.56519
      37 -> 43        -0.10228
      37 -> 44         0.27296
      37 -> 47         0.12278

 Excited State   8:      Singlet-A      8.7264 eV  142.08 nm  f=0.0279  <S**2>=0.000
      36 -> 41        -0.23879
      36 -> 42         0.49067
      36 -> 43         0.12363
      36 -> 44        -0.29114
      36 -> 46        -0.10190
      36 -> 47         0.11642
      37 -> 41        -0.12935
      37 -> 42         0.12499
      37 -> 44        -0.16854

 Excited State   9:      Singlet-A      8.8374 eV  140.29 nm  f=0.0494  <S**2>=0.000
      36 -> 41         0.35309
      36 -> 42         0.20514
      36 -> 43         0.14642
      36 -> 45         0.10453
      37 -> 41         0.49860
      37 -> 44        -0.13436

 Excited State  10:      Singlet-A      8.8734 eV  139.72 nm  f=0.0954  <S**2>=0.000
      36 -> 41         0.48978
      36 -> 42         0.12003
      37 -> 41        -0.27420
      37 -> 43         0.29391
      37 -> 44         0.15290
      37 -> 45         0.18296

 The electronic state is 1-A.
 Alpha  occ. eigenvalues --  -14.30788 -14.30777 -10.20041 -10.19935 -10.17408
 Alpha  occ. eigenvalues --  -10.17366 -10.17302 -10.17260 -10.17013  -0.87247
 Alpha  occ. eigenvalues --   -0.87207  -0.79476  -0.75414  -0.70238  -0.64820
 Alpha  occ. eigenvalues --   -0.60486  -0.57463  -0.55472  -0.48168  -0.47264
 Alpha  occ. eigenvalues --   -0.45956  -0.45585  -0.44132  -0.42873  -0.40655
 Alpha  occ. eigenvalues --   -0.40137  -0.38546  -0.37010  -0.34783  -0.34181
 Alpha  occ. eigenvalues --   -0.33718  -0.32277  -0.31375  -0.30984  -0.30245
 Alpha  occ. eigenvalues --   -0.23510  -0.23307
 Alpha virt. eigenvalues --    0.08604   0.09223   0.10004   0.11936   0.11998
 Alpha virt. eigenvalues --    0.13148   0.13930   0.15225   0.16111   0.16754
 Alpha virt. eigenvalues --    0.17408   0.18357   0.18881   0.19551   0.19846

 Mulliken charges:
               1
     1  N   -0.645444
     2  C   -0.049374
     3  C   -0.176377
     4  C   -0.176556
     5  C   -0.180493
     6  C   -0.163216
     7  C   -0.145262
     8  C   -0.078620
     9  N   -0.042651
    10  H    0.249215
    11  H    0.247686
    12  H    0.085978
    13  H    0.098342
    14  H    0.090944
    15  H    0.089909
    16  H    0.090498
    17  H    0.089026
    18  H    0.089727
    19  H    0.095630
    20  H    0.086323
    21  H    0.074118
    22  H    0.066095
    23  H    0.057047
    24  H    0.085409
    25  H    0.100049
    26  H   -0.010206
    27  H   -0.027798
 Sum of Mulliken charges =   0.00000

 Dipole moment (field-independent basis, Debye):
    X=              0.1822    Y=             -1.2938    Z=              0.2198  Tot=              1.3250
 Quadrupole moment (field-independent basis, Debye-Ang):
   XX=            -69.9099   YY=            -60.4641   ZZ=            -61.0599
   XY=             10.1656   XZ=              3.8378   YZ=              0.3544

 Summary of Natural Population Analysis:

                                       Natural Population
                Natural  -----------------------------------------------
    Atom  No    Charge         Core      Valence    Rydberg      Total
 -----------------------------------------------------------------------
      N    1   -0.92900      1.99969     5.91440    0.01492     7.92900
      C    2   -0.26088      1.99936     4.24849    0.01303     6.26088
      C    3   -0.47366      1.99933     4.46229    0.01204     6.47366
      C    4   -0.46521      1.99933     4.45400    0.01188     6.46521
      C    5   -0.46340      1.99933     4.45253    0.01153     6.46340
      C    6   -0.46202      1.99933     4.44967    0.01302     6.46202
      C    7   -0.47956      1.99932     4.46708    0.01316     6.47956
      C    8   -0.35383      1.99931     4.33591    0.01861     6.35383
      N    9   -0.38339      1.99934     5.35845    0.02560     7.38339
      H   10    0.38840      0.00000     0.60871    0.00289     0.61160
      H   11    0.38189      0.00000     0.61500    0.00311     0.61811
      H   12    0.20231      0.00000     0.79526    0.00243     0.79769
      H   13    0.22179      0.00000     0.77600    0.00222     0.77821
      H   14    0.23838      0.00000     0.75892    0.00270     0.76162
      H   15    0.22694      0.00000     0.77078    0.00228     0.77306
      H   16    0.23300      0.00000     0.76316    0.00384     0.76700
      H   17    0.22845      0.00000     0.76902    0.00254     0.77155
      H   18    0.22777      0.00000     0.76937    0.00287     0.77223
      H   19    0.23728      0.00000     0.76078    0.00194     0.76272
      H   20    0.22814      0.00000     0.76634    0.00552     0.77186
      H   21    0.22474      0.00000     0.76759    0.00767     0.77526
      H   22    0.20701      0.00000     0.78001    0.01297     0.79299
      H   23    0.20949      0.00000     0.76943    0.02108     0.79051
      H   24    0.21629      0.00000     0.75884    0.02487     0.78371
      H   25    0.24679      0.00000     0.71820    0.03501     0.75321
      H   26    0.18495      0.00000     0.72774    0.08731     0.81505
      H   27    0.16556      0.00000     0.74690    0.08754     0.83444
 =======================================================================
   * Total *   -0.00179     17.99434    55.56488    0.44257    74.00179

 1\1\GINC-CN34\SP\RB3LYP TD-FC\6-31G(d,p)\C7H18N2\QDUEZ\09-Jul-2024\0\\
 # TD(NStates=10, Root=1) B3LYP/6-31G** SCRF=(Solvent=water) volume pop
 =NPA density=current Geom=AllCheck Guess=Read\\PWSKHLMYTZNYKO-UHFFFAOY
 SA-N_conf_2\\0,1\N,0,4.670686761,-0.4727854266,-0.5107146285\C,0,3.388
 545753,-0.0640417693,0.0895388083\C,0,2.2840993581,-1.0607695035,-0.27
 26665944\C,0,0.9242451997,-0.7841622107,0.3898270376\C,0,0.215378198,0
 .4875080342,-0.1025332145\C,0,-1.1449932434,0.7590874312,0.5608706548\
 C,0,-2.234563285,-0.273136422,0.2403204548\C,0,-3.6134613068,0.0782243

 Normal termination of Gaussian 16 at Tue Jul  9 19:45:30 2024.
