 Gaussian 16, Revision A.03,

 -------------------------------------------------------
 # opt=CalcFc B3LYP/6-31G** SCRF=(Solvent=water) scf=xqc
 -------------------------------------------------------

 ----------------------------------
 WZCQRUWWHSTZEM-UHFFFAOYSA-N_conf_0
 ----------------------------------
 Symbolic Z-matrix:
 Charge =  0 Multiplicity = 1

 SCF Done:  E(RB3LYP) =  -342.983169695     A.U. after   11 cycles
 SCF Done:  E(RB3LYP) =  -342.985423558     A.U. after   10 cycles
 SCF Done:  E(RB3LYP) =  -342.985455120     A.U. after    8 cycles
 Optimization completed.
    -- Stationary point found.

 1\1\GINC-DRG2-W011\FOpt\RB3LYP\6-31G(d,p)\C6H8N2\QDUEZ\21-Jul-2024\0\\
 # opt=CalcFc B3LYP/6-31G** SCRF=(Solvent=water) scf=xqc\\WZCQRUWWHSTZE
 M-UHFFFAOYSA-N_conf_0\\0,1\N,-2.390764462,-0.8703662496,-0.6229616272\
 C,-1.1969786874,-0.2179910769,-0.2980962072\C,0.0029665092,-0.94124021
 55,-0.2154570003\C,1.1986704572,-0.3187871882,0.1752236022\N,2.3967865
 064,-1.0403591004,0.1855821512\C,1.1891348099,1.0533085395,0.489768671
 3\C,-0.0055667467,1.76626767,0.40431202\C,-1.1960926546,1.1543368326,0
 .0155780406\H,-2.274148789,-1.7067094069,-1.1814424105\H,-3.0991991351

 Normal termination of Gaussian 16 at Sun Jul 21 11:57:22 2024.

 ----------------------------------------------------------------------
 # freq B3LYP/6-31G** SCRF=(Solvent=water) volume NMR pop=NPA density=c
 urrent Geom=AllCheck Guess=Read
 ----------------------------------------------------------------------

 Structure from the checkpoint file:  "WZCQRUWWHSTZEM-UHFFFAOYSA-N_conf_0_1.chk"
 ----------------------------------
 WZCQRUWWHSTZEM-UHFFFAOYSA-N_conf_0
 ----------------------------------
 Charge =  0 Multiplicity = 1

 SCF Done:  E(RB3LYP) =  -342.985455120     A.U. after    1 cycles

      1  N    Isotropic =   200.1169   Anisotropy =    75.5986

      2  C    Isotropic =    49.0309   Anisotropy =   159.3307

      3  C    Isotropic =    97.3009   Anisotropy =    94.3988

      4  C    Isotropic =    49.0309   Anisotropy =   159.3307

      5  N    Isotropic =   200.1169   Anisotropy =    75.5986

      6  C    Isotropic =    92.8942   Anisotropy =   116.9961

      7  C    Isotropic =    67.1768   Anisotropy =   163.9805

      8  C    Isotropic =    92.8942   Anisotropy =   116.9961

      9  H    Isotropic =    28.7629   Anisotropy =    11.7789

     10  H    Isotropic =    28.7698   Anisotropy =    12.1677

     11  H    Isotropic =    25.9870   Anisotropy =     6.7359

     12  H    Isotropic =    28.7629   Anisotropy =    11.7789

     13  H    Isotropic =    28.7698   Anisotropy =    12.1677

     14  H    Isotropic =    25.8288   Anisotropy =     4.5107

     15  H    Isotropic =    24.8246   Anisotropy =     3.7439

     16  H    Isotropic =    25.8288   Anisotropy =     4.5107

  Exact polarizability: 141.487   0.000 118.023   0.739  -0.000  34.325
 Approx polarizability: 170.038   0.000 142.612  -1.581  -0.000  43.349

                      1                      2                      3
                      A                      A                      A
 Frequencies --    215.8555               225.8595               304.8274
 Red. masses --      3.7612                 3.4645                 1.5096
 Frc consts  --      0.1033                 0.1041                 0.0826
 IR Inten    --     21.9701                 5.6620                31.5377

                      4                      5                      6
                      A                      A                      A
 Frequencies --    307.4196               326.5703               451.6720
 Red. masses --      1.0539                 1.6752                 2.7760
 Frc consts  --      0.0587                 0.1053                 0.3337
 IR Inten    --     17.7153                27.1744                 1.1817

                      7                      8                      9
                      A                      A                      A
 Frequencies --    453.9199               528.8832               546.8937
 Red. masses --      2.8048                 6.4726                 6.0155
 Frc consts  --      0.3405                 1.0667                 1.0601
 IR Inten    --     34.7082                15.3310                20.8316

                     10                     11                     12
                      A                      A                      A
 Frequencies --    587.5864               612.7016               670.0030
 Red. masses --      1.7499                 1.3708                 2.5403
 Frc consts  --      0.3560                 0.3032                 0.6719
 IR Inten    --     68.5484               875.9481                84.6532

                     13                     14                     15
                      A                      A                      A
 Frequencies --    701.2860               763.6140               765.3510
 Red. masses --      2.0557                 4.3835                 1.4549
 Frc consts  --      0.5957                 1.5060                 0.5021
 IR Inten    --     19.4045                 3.4829                91.9489

                     16                     17                     18
                      A                      A                      A
 Frequencies --    829.2345               833.1927               957.4352
 Red. masses --      1.6139                 1.4698                 1.2400
 Frc consts  --      0.6538                 0.6012                 0.6697
 IR Inten    --     66.0721                 0.7676                 0.0227

                     19                     20                     21
                      A                      A                      A
 Frequencies --    975.5578              1003.2650              1084.7714
 Red. masses --      2.4988                 5.9680                 1.6158
 Frc consts  --      1.4011                 3.5393                 1.1203
 IR Inten    --     17.4622                 0.5111                 7.2741

                     22                     23                     24
                      A                      A                      A
 Frequencies --   1133.9585              1144.0277              1188.4782
 Red. masses --      1.3235                 1.2442                 1.0996
 Frc consts  --      1.0027                 0.9594                 0.9151
 IR Inten    --      4.0780                 0.2641                41.3637

                     25                     26                     27
                      A                      A                      A
 Frequencies --   1234.8071              1356.0594              1358.8953
 Red. masses --      1.9539                 3.9073                 1.3388
 Frc consts  --      1.7553                 4.2333                 1.4566
 IR Inten    --    107.0732                55.7458                 0.0027

                     28                     29                     30
                      A                      A                      A
 Frequencies --   1375.8409              1521.2297              1542.1567
 Red. masses --      4.9346                 2.9514                 2.6259
 Frc consts  --      5.5035                 4.0241                 3.6795
 IR Inten    --     19.5150                17.3591               115.8574

                     31                     32                     33
                      A                      A                      A
 Frequencies --   1635.3420              1651.7369              1660.9642
 Red. masses --      4.7045                 1.6410                 1.2000
 Frc consts  --      7.4128                 2.6378                 1.9505
 IR Inten    --     74.6630                37.2246                69.2015

                     34                     35                     36
                      A                      A                      A
 Frequencies --   1664.7543              3166.8432              3172.1671
 Red. masses --      2.2144                 1.0902                 1.0853
 Frc consts  --      3.6158                 6.4415                 6.4347
 IR Inten    --    474.4380                31.1015                 9.9749

                     37                     38                     39
                      A                      A                      A
 Frequencies --   3185.2431              3196.3496              3556.7218
 Red. masses --      1.0909                 1.0968                 1.0486
 Frc consts  --      6.5208                 6.6019                 7.8156
 IR Inten    --     41.5118                25.6892                40.5830

                     40                     41                     42
                      A                      A                      A
 Frequencies --   3556.9349              3657.6732              3657.6987
 Red. masses --      1.0487                 1.0979                 1.0978
 Frc consts  --      7.8169                 8.6539                 8.6534
 IR Inten    --      8.2146                11.2358                28.3922

 - Thermochemistry -
 -------------------
 Temperature   298.150 Kelvin.  Pressure   1.00000 Atm.
 Atom     1 has atomic number  7 and mass  14.00307

 Molecular mass:   108.06875 amu.
 Principal axes and moments of inertia in atomic units:
                           1         2         3
     Eigenvalues --   488.54593 995.782371480.74012
           X            0.99994   0.00000   0.01121
           Y           -0.00000   1.00000   0.00000
           Z           -0.01121  -0.00000   0.99994
 This molecule is an asymmetric top.
 Rotational symmetry number  1.
 Warning -- assumption of classical behavior for rotation
           may cause significant error
 Rotational temperatures (Kelvin)      0.17729     0.08698     0.05849
 Rotational constants (GHZ):           3.69411     1.81239     1.21881
 Zero-point vibrational energy     351485.5 (Joules/Mol)
                                   84.00704 (Kcal/Mol)
 Warning -- explicit consideration of  11 degrees of freedom as
           vibrations may cause significant error
 Vibrational temperatures:    310.57   324.96   438.58   442.31   469.86
          (Kelvin)            649.86   653.09   760.94   786.86   845.41
                              881.54   963.98  1008.99  1098.67  1101.17
                             1193.08  1198.78  1377.54  1403.61  1443.47
                             1560.74  1631.51  1646.00  1709.96  1776.61
                             1951.07  1955.15  1979.53  2188.71  2218.82
                             2352.89  2376.48  2389.76  2395.21  4556.38
                             4564.04  4582.85  4598.83  5117.33  5117.64
                             5262.58  5262.61

 Zero-point correction=                           0.133874 (Hartree/Particle)
 Thermal correction to Energy=                    0.141037
 Thermal correction to Enthalpy=                  0.141982
 Thermal correction to Gibbs Free Energy=         0.103145
 Sum of electronic and zero-point Energies=           -342.851581
 Sum of electronic and thermal Energies=              -342.844418
 Sum of electronic and thermal Enthalpies=            -342.843474
 Sum of electronic and thermal Free Energies=         -342.882310

                     E (Thermal)             CV                S
                      KCal/Mol        Cal/Mol-Kelvin    Cal/Mol-Kelvin
 Total                   88.502             29.028             81.738
 Electronic               0.000              0.000              0.000
 Translational            0.889              2.981             39.949
 Rotational               0.889              2.981             28.068
 Vibrational             86.725             23.066             13.721
 Vibration     1          0.645              1.817              1.994
 Vibration     2          0.650              1.802              1.912
 Vibration     3          0.696              1.665              1.390
 Vibration     4          0.697              1.660              1.376
 Vibration     5          0.710              1.622              1.277
 Vibration     6          0.810              1.357              0.791
 Vibration     7          0.812              1.352              0.784
 Vibration     8          0.884              1.186              0.590
 Vibration     9          0.902              1.146              0.551
 Vibration    10          0.945              1.058              0.472
 Vibration    11          0.972              1.005              0.428

 Optimization completed.
    -- Stationary point found.

 1\1\GINC-DRG2-W011\Freq\RB3LYP\6-31G(d,p)\C6H8N2\QDUEZ\21-Jul-2024\0\\
 # freq B3LYP/6-31G** SCRF=(Solvent=water) volume NMR pop=NPA density=c
 urrent Geom=AllCheck Guess=Read\\WZCQRUWWHSTZEM-UHFFFAOYSA-N_conf_0\\0
 ,1\N,-2.390764462,-0.8703662496,-0.6229616272\C,-1.1969786874,-0.21799
 10769,-0.2980962072\C,0.0029665086,-0.9412402155,-0.2154570004\C,1.198
 6704572,-0.3187871882,0.1752236022\N,2.3967865064,-1.0403591004,0.1855
 821512\C,1.1891348099,1.0533085395,0.4897686713\C,-0.0055667458,1.7662
 6767,0.4043120203\C,-1.1960926546,1.1543368326,0.0155780406\H,-2.27414

 Normal termination of Gaussian 16 at Sun Jul 21 12:01:14 2024.
 Gaussian 16:  ES64L-G16RevA.03 25-Dec-2016

 ----------------------------------------------------------------------
 # TD(NStates=10, Root=1) B3LYP/6-31G** SCRF=(Solvent=water) volume pop
 =NPA density=current Geom=AllCheck Guess=Read
 ----------------------------------------------------------------------

 Structure from the checkpoint file:  "WZCQRUWWHSTZEM-UHFFFAOYSA-N_conf_0_2.chk"
 ----------------------------------
 WZCQRUWWHSTZEM-UHFFFAOYSA-N_conf_0
 ----------------------------------
 Charge =  0 Multiplicity = 1

                         Standard orientation:
 ---------------------------------------------------------------------
 Center     Atomic      Atomic             Coordinates (Angstroms)
 Number     Number       Type             X           Y           Z
 ---------------------------------------------------------------------
      1          7           0        2.427648   -0.998032   -0.085714
      2          6           0        1.221991   -0.293287   -0.008382
      3          6           0        0.000000   -0.983545    0.000000
      4          6           0       -1.221991   -0.293287    0.008382
      5          7           0       -2.427648   -0.998032    0.085714
      6          6           0       -1.216982    1.114423    0.006875
      7          6           0        0.000000    1.794006    0.000000
      8          6           0        1.216982    1.114423   -0.006875
      9          1           0        2.389567   -1.938260    0.287772
     10          1           0        3.226933   -0.497983    0.282912
     11          1           0        0.000000   -2.071397    0.000000
     12          1           0       -2.389567   -1.938260   -0.287772
     13          1           0       -3.226933   -0.497983   -0.282912
     14          1           0       -2.156607    1.659459    0.014998
     15          1           0        0.000000    2.881020    0.000000
     16          1           0        2.156607    1.659459   -0.014998
 ---------------------------------------------------------------------

 SCF Done:  E(RB3LYP) =  -342.985455120     A.U. after    1 cycles

 Excitation energies and oscillator strengths:

 Excited State   1:      Singlet-A      4.7557 eV  260.71 nm  f=0.0967  <S**2>=0.000
      28 -> 31        -0.26971
      29 -> 30         0.64979
 This state for optimization and/or second-order correction.
 Total Energy, E(TD-HF/TD-DFT) =  -342.810685745
 Copying the excited state density for this state as the 1-particle RhoCI density.

 Excited State   2:      Singlet-A      5.4943 eV  225.66 nm  f=0.0751  <S**2>=0.000
      28 -> 30         0.43773
      29 -> 31         0.55224

 Excited State   3:      Singlet-A      5.7181 eV  216.83 nm  f=0.3211  <S**2>=0.000
      27 -> 30         0.11144
      28 -> 30         0.54434
      29 -> 31        -0.43089

 Excited State   4:      Singlet-A      6.0035 eV  206.52 nm  f=0.9429  <S**2>=0.000
      28 -> 31         0.64716
      29 -> 30         0.26161

 Excited State   5:      Singlet-A      6.8619 eV  180.69 nm  f=0.0033  <S**2>=0.000
      28 -> 33        -0.15285
      29 -> 32         0.68247

 Excited State   6:      Singlet-A      6.9535 eV  178.30 nm  f=0.0161  <S**2>=0.000
      28 -> 32        -0.20484
      29 -> 33         0.66728

 Excited State   7:      Singlet-A      7.3643 eV  168.36 nm  f=0.0006  <S**2>=0.000
      28 -> 33        -0.36548
      29 -> 34         0.59973

 Excited State   8:      Singlet-A      7.4431 eV  166.58 nm  f=0.0118  <S**2>=0.000
      28 -> 32         0.66867
      29 -> 33         0.20803

 Excited State   9:      Singlet-A      7.4505 eV  166.41 nm  f=0.3707  <S**2>=0.000
      27 -> 30         0.66769
      28 -> 33         0.16496

 Excited State  10:      Singlet-A      7.5737 eV  163.70 nm  f=0.0507  <S**2>=0.000
      27 -> 30        -0.17876
      28 -> 33         0.55794
      29 -> 32         0.16513
      29 -> 34         0.35464

 The electronic state is 1-A.
 Alpha  occ. eigenvalues --  -14.33335 -14.33335 -10.22376 -10.22375 -10.18416
 Alpha  occ. eigenvalues --  -10.17181 -10.16987 -10.16986  -0.91537  -0.90314
 Alpha  occ. eigenvalues --   -0.81390  -0.72673  -0.71079  -0.60442  -0.59285
 Alpha  occ. eigenvalues --   -0.51714  -0.51346  -0.48003  -0.47078  -0.44201
 Alpha  occ. eigenvalues --   -0.41318  -0.40401  -0.38479  -0.35669  -0.34365
 Alpha  occ. eigenvalues --   -0.33105  -0.28264  -0.21280  -0.19277
 Alpha virt. eigenvalues --    0.01216   0.02709   0.09466   0.09770   0.11732
 Alpha virt. eigenvalues --    0.13312   0.14829   0.17766   0.18488   0.19048
 Alpha virt. eigenvalues --    0.20687   0.27213   0.28015   0.32515   0.32953

 Mulliken charges:
               1
     1  N   -0.630010
     2  C    0.222780
     3  C   -0.208012
     4  C    0.222780
     5  N   -0.630010
     6  C   -0.117241
     7  C   -0.182118
     8  C   -0.117241
     9  H    0.282441
    10  H    0.287246
    11  H    0.062095
    12  H    0.282441
    13  H    0.287246
    14  H    0.085752
    15  H    0.066098
    16  H    0.085752
 Sum of Mulliken charges =  -0.00000

 Dipole moment (field-independent basis, Debye):
    X=              0.0000    Y=             -2.2783    Z=             -0.0000  Tot=              2.2783
 Quadrupole moment (field-independent basis, Debye-Ang):
   XX=            -30.0567   YY=            -41.9737   ZZ=            -52.2623
   XY=             -0.0000   XZ=              7.0440   YZ=              0.0000

 Summary of Natural Population Analysis:

                                       Natural Population
                Natural  -----------------------------------------------
    Atom  No    Charge         Core      Valence    Rydberg      Total
 -----------------------------------------------------------------------
      N    1   -0.77854      1.99950     5.76708    0.01196     7.77854
      C    2    0.13709      1.99901     3.84424    0.01967     5.86291
      C    3   -0.43802      1.99900     4.41954    0.01948     6.43802
      C    4    0.13709      1.99901     3.84424    0.01967     5.86291
      N    5   -0.77854      1.99950     5.76708    0.01196     7.77854
      C    6   -0.24656      1.99905     4.23117    0.01634     6.24656
      C    7   -0.36993      1.99917     4.34998    0.02078     6.36993
      C    8   -0.24656      1.99905     4.23117    0.01634     6.24656
      H    9    0.41321      0.00000     0.58266    0.00413     0.58679
      H   10    0.41711      0.00000     0.58024    0.00266     0.58289
      H   11    0.22659      0.00000     0.77169    0.00172     0.77341
      H   12    0.41321      0.00000     0.58266    0.00413     0.58679
      H   13    0.41711      0.00000     0.58024    0.00266     0.58289
      H   14    0.23361      0.00000     0.76466    0.00173     0.76639
      H   15    0.22955      0.00000     0.76901    0.00144     0.77045
      H   16    0.23361      0.00000     0.76466    0.00173     0.76639
 =======================================================================
   * Total *   -0.00000     15.99329    41.85033    0.15638    58.00000

 Normal termination of Gaussian 16 at Sun Jul 21 12:06:33 2024.
