 Gaussian 16, Revision A.03,

 -------------------------------------------------------
 # opt=CalcFc B3LYP/6-31G** SCRF=(Solvent=water) scf=xqc
 -------------------------------------------------------

 ----------------------------------
 SXJVFQLYZSNZBT-UHFFFAOYSA-N_conf_2
 ----------------------------------
 Symbolic Z-matrix:
 Charge =  0 Multiplicity = 1

 SCF Done:  E(RB3LYP) =  -465.743262154     A.U. after   11 cycles
 SCF Done:  E(RB3LYP) =  -465.746929722     A.U. after    9 cycles
 SCF Done:  E(RB3LYP) =  -465.747034203     A.U. after    8 cycles
 SCF Done:  E(RB3LYP) =  -465.747034627     A.U. after    7 cycles
 SCF Done:  E(RB3LYP) =  -465.747034761     A.U. after    6 cycles
 Optimization completed.
    -- Stationary point found.
 Normal termination of Gaussian 16 at Fri Jul 19 09:51:19 2024.

 ----------------------------------------------------------------------
 # freq B3LYP/6-31G** SCRF=(Solvent=water) volume NMR pop=NPA density=c
 urrent Geom=AllCheck Guess=Read
 ----------------------------------------------------------------------

 Structure from the checkpoint file:  "SXJVFQLYZSNZBT-UHFFFAOYSA-N_conf_2_1.chk"
 ----------------------------------
 SXJVFQLYZSNZBT-UHFFFAOYSA-N_conf_2
 ----------------------------------
 Charge =  0 Multiplicity = 1

 SCF Done:  E(RB3LYP) =  -465.747034761     A.U. after    1 cycles

      1  N    Isotropic =   232.6142   Anisotropy =    33.4100

      2  C    Isotropic =   145.9881   Anisotropy =    37.6989

      3  C    Isotropic =   158.1285   Anisotropy =    28.7785

      4  C    Isotropic =   162.0939   Anisotropy =    19.6504

      5  C    Isotropic =   159.4989   Anisotropy =    23.3373

      6  C    Isotropic =   159.5827   Anisotropy =    28.4061

      7  C    Isotropic =   155.2231   Anisotropy =    36.8666

      8  C    Isotropic =   159.6457   Anisotropy =    26.3301

      9  C    Isotropic =   157.2758   Anisotropy =    13.2119

     10  C    Isotropic =   144.4152   Anisotropy =    23.7547

     11  N    Isotropic =   231.1420   Anisotropy =    24.6494

     12  H    Isotropic =    31.5810   Anisotropy =    11.8464

     13  H    Isotropic =    31.0539   Anisotropy =    15.6923

     14  H    Isotropic =    28.8962   Anisotropy =     5.8611

     15  H    Isotropic =    29.3263   Anisotropy =     5.4043

     16  H    Isotropic =    30.5297   Anisotropy =     4.9117

     17  H    Isotropic =    30.1780   Anisotropy =     5.2627

     18  H    Isotropic =    30.4908   Anisotropy =     5.8944

     19  H    Isotropic =    30.3596   Anisotropy =     7.7826

     20  H    Isotropic =    30.4281   Anisotropy =     5.2830

     21  H    Isotropic =    30.2837   Anisotropy =     6.7710

     22  H    Isotropic =    30.7884   Anisotropy =     4.8058

     23  H    Isotropic =    30.1160   Anisotropy =     6.1084

     24  H    Isotropic =    30.4870   Anisotropy =     4.6261

     25  H    Isotropic =    30.1068   Anisotropy =     7.2718

     26  H    Isotropic =    30.4095   Anisotropy =     4.4554

     27  H    Isotropic =    30.1604   Anisotropy =     6.5720

     28  H    Isotropic =    30.2163   Anisotropy =     8.6213

     29  H    Isotropic =    30.5533   Anisotropy =     5.9127

     30  H    Isotropic =    28.9856   Anisotropy =     8.8154

     31  H    Isotropic =    29.2282   Anisotropy =     7.2665

     32  H    Isotropic =    31.7494   Anisotropy =    11.4680

     33  H    Isotropic =    30.9899   Anisotropy =    11.1265

  Exact polarizability: 156.124  -2.416 135.291  -1.912  -3.082 135.294
 Approx polarizability: 151.367  -2.462 147.985  -1.777  -2.318 148.267

                      1                      2                      3
                      A                      A                      A
 Frequencies --     22.3472                41.9819                59.3325
 Red. masses --      3.8296                 2.8418                 2.0995
 Frc consts  --      0.0011                 0.0030                 0.0044
 IR Inten    --      0.1260                 0.9137                 3.4413

                      4                      5                      6
                      A                      A                      A
 Frequencies --     71.8585                81.4548               114.1219
 Red. masses --      1.8948                 2.6254                 2.1059
 Frc consts  --      0.0058                 0.0103                 0.0162
 IR Inten    --      1.3492                 3.0102                 1.1183

                      7                      8                      9
                      A                      A                      A
 Frequencies --    124.2656               136.5611               166.0150
 Red. masses --      2.3121                 2.8494                 2.4035
 Frc consts  --      0.0210                 0.0313                 0.0390
 IR Inten    --      3.0348                 1.3195                 1.6763

                     10                     11                     12
                      A                      A                      A
 Frequencies --    207.0168               248.0594               263.1027
 Red. masses --      2.3884                 2.0937                 1.2004
 Frc consts  --      0.0603                 0.0759                 0.0490
 IR Inten    --      0.9849                 6.1200                64.2825

                     13                     14                     15
                      A                      A                      A
 Frequencies --    284.4643               329.1791               348.1868
 Red. masses --      2.0031                 1.3895                 2.0982
 Frc consts  --      0.0955                 0.0887                 0.1499
 IR Inten    --      9.9347                53.3338                 5.4188

                     16                     17                     18
                      A                      A                      A
 Frequencies --    383.7997               439.9104               482.8735
 Red. masses --      3.0446                 3.0996                 1.9887
 Frc consts  --      0.2642                 0.3534                 0.2732
 IR Inten    --      3.6973                12.7968                 8.0658

                     19                     20                     21
                      A                      A                      A
 Frequencies --    517.2837               729.3265               746.2424
 Red. masses --      2.2818                 1.1041                 1.1924
 Frc consts  --      0.3597                 0.3460                 0.3912
 IR Inten    --      1.0619                 6.3386                 3.5590

                     22                     23                     24
                      A                      A                      A
 Frequencies --    765.2349               806.1880               837.2724
 Red. masses --      1.2512                 1.9540                 1.3166
 Frc consts  --      0.4317                 0.7483                 0.5438
 IR Inten    --      1.2030                12.4047                 9.4146

                     25                     26                     27
                      A                      A                      A
 Frequencies --    840.1910               876.7412               900.0085
 Red. masses --      1.3929                 1.5874                 1.5801
 Frc consts  --      0.5793                 0.7189                 0.7541
 IR Inten    --     43.8192                17.4262               306.8543

                     28                     29                     30
                      A                      A                      A
 Frequencies --    916.6407               942.8917               976.0023
 Red. masses --      1.5195                 1.8521                 2.3010
 Frc consts  --      0.7522                 0.9702                 1.2914
 IR Inten    --     16.1242                 4.9666                86.1591

                     31                     32                     33
                      A                      A                      A
 Frequencies --    988.0228              1005.9837              1012.4234
 Red. masses --      2.2768                 1.9289                 1.5626
 Frc consts  --      1.3095                 1.1501                 0.9437
 IR Inten    --     31.0740                 5.6708                 1.9023

                     34                     35                     36
                      A                      A                      A
 Frequencies --   1048.4679              1070.4410              1084.1054
 Red. masses --      2.7778                 1.8262                 2.2650
 Frc consts  --      1.7991                 1.2329                 1.5684
 IR Inten    --      5.9686                 2.4481                 1.6124

                     37                     38                     39
                      A                      A                      A
 Frequencies --   1085.8055              1091.8636              1097.5791
 Red. masses --      1.5831                 2.2307                 1.9789
 Frc consts  --      1.0997                 1.5668                 1.4046
 IR Inten    --      6.8713                16.2728                 9.3380

                     40                     41                     42
                      A                      A                      A
 Frequencies --   1126.6906              1169.8130              1177.0070
 Red. masses --      1.6778                 1.4618                 1.7884
 Frc consts  --      1.2549                 1.1786                 1.4597
 IR Inten    --      6.9832                14.1393                 3.4039

                     43                     44                     45
                      A                      A                      A
 Frequencies --   1223.1125              1256.1109              1267.5590
 Red. masses --      1.4983                 1.3409                 1.3830
 Frc consts  --      1.3206                 1.2466                 1.3092
 IR Inten    --      3.7832                 4.0745                 3.0027

                     46                     47                     48
                      A                      A                      A
 Frequencies --   1287.8308              1302.5007              1309.7608
 Red. masses --      1.2650                 1.2772                 1.2698
 Frc consts  --      1.2361                 1.2766                 1.2834
 IR Inten    --      3.3408                 2.9140                 1.1968

                     49                     50                     51
                      A                      A                      A
 Frequencies --   1327.0309              1333.3492              1337.5805
 Red. masses --      1.1447                 1.0961                 1.0731
 Frc consts  --      1.1877                 1.1481                 1.1312
 IR Inten    --      0.2581                 1.4301                 2.2588

                     52                     53                     54
                      A                      A                      A
 Frequencies --   1347.8062              1359.3370              1378.3246
 Red. masses --      1.2236                 1.2482                 1.4101
 Frc consts  --      1.3096                 1.3589                 1.5783
 IR Inten    --      0.8390                 0.1788                 1.1454

                     55                     56                     57
                      A                      A                      A
 Frequencies --   1396.4525              1401.4710              1402.8528
 Red. masses --      1.3934                 1.3033                 1.3620
 Frc consts  --      1.6010                 1.5083                 1.5792
 IR Inten    --     10.4879                 4.7979                 3.8650

                     58                     59                     60
                      A                      A                      A
 Frequencies --   1407.3507              1412.0906              1437.0975
 Red. masses --      1.3454                 1.5942                 1.4921
 Frc consts  --      1.5701                 1.8729                 1.8156
 IR Inten    --      9.9822                 2.1674                23.3901

                     61                     62                     63
                      A                      A                      A
 Frequencies --   1484.6215              1487.1821              1489.0790
 Red. masses --      1.0771                 1.0887                 1.0813
 Frc consts  --      1.3987                 1.4186                 1.4127
 IR Inten    --      0.5167                 3.5878                 1.5303

                     64                     65                     66
                      A                      A                      A
 Frequencies --   1491.8941              1496.4753              1503.5408
 Red. masses --      1.0880                 1.0906                 1.0916
 Frc consts  --      1.4268                 1.4390                 1.4539
 IR Inten    --      0.9181                 0.2171                 0.4633

                     67                     68                     69
                      A                      A                      A
 Frequencies --   1505.1862              1519.0367              1527.3983
 Red. masses --      1.0936                 1.0989                 1.0928
 Frc consts  --      1.4598                 1.4940                 1.5020
 IR Inten    --      1.5882                 4.0307                 1.8157

                     70                     71                     72
                      A                      A                      A
 Frequencies --   1655.5856              1661.2556              2953.5209
 Red. masses --      1.0871                 1.0889                 1.0721
 Frc consts  --      1.7556                 1.7705                 5.5104
 IR Inten    --     35.4649                35.3869               116.2395

                     73                     74                     75
                      A                      A                      A
 Frequencies --   3006.9906              3008.6932              3011.0978
 Red. masses --      1.0606                 1.0599                 1.0635
 Frc consts  --      5.6501                 5.6527                 5.6812
 IR Inten    --     15.2365                21.9369                 7.8053

                     76                     77                     78
                      A                      A                      A
 Frequencies --   3013.7106              3014.0462              3019.7218
 Red. masses --      1.0619                 1.0634                 1.0672
 Frc consts  --      5.6825                 5.6917                 5.7335
 IR Inten    --     53.7137                14.9758               144.9179

                     79                     80                     81
                      A                      A                      A
 Frequencies --   3023.1530              3023.7306              3040.1398
 Red. masses --      1.0608                 1.0624                 1.0930
 Frc consts  --      5.7121                 5.7228                 5.9517
 IR Inten    --     46.2290                69.7188                18.9010

                     82                     83                     84
                      A                      A                      A
 Frequencies --   3041.7286              3043.1435              3046.9159
 Red. masses --      1.0927                 1.0985                 1.0962
 Frc consts  --      5.9568                 5.9935                 5.9958
 IR Inten    --     37.3864                50.7517                 9.8311

                     85                     86                     87
                      A                      A                      A
 Frequencies --   3051.3190              3058.5124              3065.0919
 Red. masses --      1.0974                 1.1013                 1.1053
 Frc consts  --      6.0201                 6.0701                 6.1183
 IR Inten    --     88.0509                31.6304                96.9433

                     88                     89                     90
                      A                      A                      A
 Frequencies --   3071.0906              3074.0615              3474.4479
 Red. masses --      1.1043                 1.1032                 1.0510
 Frc consts  --      6.1366                 6.1423                 7.4752
 IR Inten    --    244.5993               206.4813                 2.0781

                     91                     92                     93
                      A                      A                      A
 Frequencies --   3482.1778              3551.9808              3566.2414
 Red. masses --      1.0505                 1.0912                 1.0911
 Frc consts  --      7.5051                 8.1113                 8.1762
 IR Inten    --      1.4806                 0.2764                 0.0191

 - Thermochemistry -
 -------------------
 Temperature   298.150 Kelvin.  Pressure   1.00000 Atm.
 Atom     1 has atomic number  7 and mass  14.00307

 Molecular mass:   158.17830 amu.
 Principal axes and moments of inertia in atomic units:
                           1         2         3
     Eigenvalues --   811.039416845.100137064.01010
           X            1.00000  -0.00008  -0.00069
           Y            0.00004   0.99884  -0.04813
           Z            0.00069   0.04813   0.99884
 This molecule is an asymmetric top.
 Rotational symmetry number  1.
 Warning -- assumption of classical behavior for rotation
           may cause significant error
 Rotational temperatures (Kelvin)      0.10679     0.01265     0.01226
 Rotational constants (GHZ):           2.22522     0.26365     0.25548
 Zero-point vibrational energy     815058.5 (Joules/Mol)
                                  194.80367 (Kcal/Mol)
 Warning -- explicit consideration of  19 degrees of freedom as
           vibrations may cause significant error
 Vibrational temperatures:     32.15    60.40    85.37   103.39   117.20
          (Kelvin)            164.20   178.79   196.48   238.86   297.85
                              356.90   378.55   409.28   473.62   500.96
                              552.20   632.93   694.75   744.26  1049.34
                             1073.68  1101.00  1159.92  1204.65  1208.85
                             1261.44  1294.91  1318.84  1356.61  1404.25
                             1421.54  1447.39  1456.65  1508.51  1540.13
                             1559.79  1562.23  1570.95  1579.17  1621.06
                             1683.10  1693.45  1759.79  1807.26  1823.73
                             1852.90  1874.01  1884.45  1909.30  1918.39
                             1924.48  1939.19  1955.78  1983.10  2009.18
                             2016.40  2018.39  2024.86  2031.68  2067.66
                             2136.04  2139.72  2142.45  2146.50  2153.09
                             2163.26  2165.63  2185.55  2197.59  2382.02
                             2390.18  4249.46  4326.39  4328.84  4332.30
                             4336.06  4336.54  4344.71  4349.64  4350.47
                             4374.08  4376.37  4378.40  4383.83  4390.17
                             4400.52  4409.98  4418.61  4422.89  4998.96
                             5010.08  5110.51  5131.03

 Zero-point correction=                           0.310439 (Hartree/Particle)
 Thermal correction to Energy=                    0.325119
 Thermal correction to Enthalpy=                  0.326063
 Thermal correction to Gibbs Free Energy=         0.266856
 Sum of electronic and zero-point Energies=           -465.436595
 Sum of electronic and thermal Energies=              -465.421916
 Sum of electronic and thermal Enthalpies=            -465.420971
 Sum of electronic and thermal Free Energies=         -465.480179

                     E (Thermal)             CV                S
                      KCal/Mol        Cal/Mol-Kelvin    Cal/Mol-Kelvin
 Total                  204.015             52.250            124.613
 Electronic               0.000              0.000              0.000
 Translational            0.889              2.981             41.085
 Rotational               0.889              2.981             32.039
 Vibrational            202.238             46.288             51.489
 Vibration     1          0.593              1.985              6.414
 Vibration     2          0.595              1.980              5.163
 Vibration     3          0.597              1.974              4.479
 Vibration     4          0.598              1.967              4.102
 Vibration     5          0.600              1.962              3.856
 Vibration     6          0.607              1.938              3.198
 Vibration     7          0.610              1.929              3.033
 Vibration     8          0.614              1.917              2.852
 Vibration     9          0.624              1.884              2.480
 Vibration    10          0.641              1.830              2.070
 Vibration    11          0.662              1.766              1.744
 Vibration    12          0.670              1.740              1.641
 Vibration    13          0.683              1.702              1.507
 Vibration    14          0.712              1.617              1.264
 Vibration    15          0.726              1.579              1.174
 Vibration    16          0.753              1.505              1.024
 Vibration    17          0.800              1.383              0.827
 Vibration    18          0.839              1.288              0.702
 Vibration    19          0.872              1.212              0.616

 Optimization completed.
    -- Stationary point found.
 Normal termination of Gaussian 16 at Fri Jul 19 10:02:39 2024.
 Gaussian 16:  ES64L-G16RevA.03 25-Dec-2016

 ----------------------------------------------------------------------
 # TD(NStates=10, Root=1) B3LYP/6-31G** SCRF=(Solvent=water) volume pop
 =NPA density=current Geom=AllCheck Guess=Read
 ----------------------------------------------------------------------

 Structure from the checkpoint file:  "SXJVFQLYZSNZBT-UHFFFAOYSA-N_conf_2_2.chk"
 ----------------------------------
 SXJVFQLYZSNZBT-UHFFFAOYSA-N_conf_2
 ----------------------------------
 Charge =  0 Multiplicity = 1

                         Standard orientation:
 ---------------------------------------------------------------------
 Center     Atomic      Atomic             Coordinates (Angstroms)
 Number     Number       Type             X           Y           Z
 ---------------------------------------------------------------------
      1          7           0       -5.106832    1.534961   -0.346650
      2          6           0       -4.559870    0.187082   -0.118968
      3          6           0       -3.059157    0.247099    0.172581
      4          6           0       -2.447705   -1.132931    0.448535
      5          6           0       -0.955373   -1.112002    0.818119
      6          6           0       -0.017784   -0.660574   -0.310237
      7          6           0        1.465579   -0.722257    0.074947
      8          6           0        2.405275   -0.298475   -1.064871
      9          6           0        3.912325   -0.369709   -0.741901
     10          6           0        4.526181    0.888031   -0.098825
     11          7           0        4.043742    1.298036    1.228389
     12          1           0       -4.711911    1.905140   -1.210505
     13          1           0       -6.106845    1.460816   -0.525478
     14          1           0       -4.734145   -0.504795   -0.961686
     15          1           0       -5.080100   -0.243568    0.746338
     16          1           0       -2.892800    0.906913    1.034500
     17          1           0       -2.553329    0.719024   -0.680699
     18          1           0       -2.593075   -1.778691   -0.429266
     19          1           0       -3.005123   -1.606275    1.268307
     20          1           0       -0.808931   -0.462663    1.693209
     21          1           0       -0.659443   -2.120641    1.137061
     22          1           0       -0.188414   -1.291463   -1.194887
     23          1           0       -0.264451    0.364736   -0.615912
     24          1           0        1.718821   -1.747498    0.380849
     25          1           0        1.634238   -0.096601    0.960410
     26          1           0        2.151257    0.720761   -1.391656
     27          1           0        2.198755   -0.945492   -1.927597
     28          1           0        4.466677   -0.552661   -1.672343
     29          1           0        4.110588   -1.239507   -0.098899
     30          1           0        5.611278    0.740078   -0.023782
     31          1           0        4.380006    1.739704   -0.776220
     32          1           0        4.094946    0.504902    1.866266
     33          1           0        3.056807    1.539210    1.173532
 ---------------------------------------------------------------------

 SCF Done:  E(RB3LYP) =  -465.747034761     A.U. after    1 cycles

 Excitation energies and oscillator strengths:

 Excited State   1:      Singlet-A      7.2629 eV  170.71 nm  f=0.0327  <S**2>=0.000
      45 -> 46         0.68754
 This state for optimization and/or second-order correction.
 Total Energy, E(TD-HF/TD-DFT) =  -465.480129664
 Copying the excited state density for this state as the 1-particle RhoCI density.

 Excited State   2:      Singlet-A      7.4756 eV  165.85 nm  f=0.0142  <S**2>=0.000
      44 -> 47         0.67167
      44 -> 48        -0.20146

 Excited State   3:      Singlet-A      8.1436 eV  152.25 nm  f=0.0016  <S**2>=0.000
      44 -> 46         0.66661
      44 -> 48         0.20697

 Excited State   4:      Singlet-A      8.2537 eV  150.22 nm  f=0.0236  <S**2>=0.000
      45 -> 47         0.25888
      45 -> 48         0.49911
      45 -> 49        -0.31633
      45 -> 50         0.13634
      45 -> 51         0.13703
      45 -> 52         0.15320

 Excited State   5:      Singlet-A      8.3074 eV  149.25 nm  f=0.0086  <S**2>=0.000
      44 -> 46        -0.22433
      44 -> 47         0.19068
      44 -> 48         0.58898
      44 -> 51        -0.21358

 Excited State   6:      Singlet-A      8.4474 eV  146.77 nm  f=0.0165  <S**2>=0.000
      45 -> 47         0.59853
      45 -> 48        -0.12897
      45 -> 49         0.29620
      45 -> 50         0.14420

 Excited State   7:      Singlet-A      8.5149 eV  145.61 nm  f=0.0294  <S**2>=0.000
      45 -> 47        -0.24849
      45 -> 49         0.20792
      45 -> 50         0.53483
      45 -> 51        -0.10815
      45 -> 52         0.26821

 Excited State   8:      Singlet-A      8.5971 eV  144.22 nm  f=0.0210  <S**2>=0.000
      45 -> 47        -0.10473
      45 -> 48         0.40450
      45 -> 49         0.45862
      45 -> 50        -0.14458
      45 -> 51         0.17588
      45 -> 52        -0.18181
      45 -> 53        -0.11675

 Excited State   9:      Singlet-A      8.6711 eV  142.99 nm  f=0.0164  <S**2>=0.000
      44 -> 49        -0.30579
      44 -> 50         0.47035
      44 -> 52        -0.35907
      44 -> 56        -0.13076

 Excited State  10:      Singlet-A      8.9305 eV  138.83 nm  f=0.0115  <S**2>=0.000
      45 -> 48        -0.23802
      45 -> 50         0.15500
      45 -> 51         0.60809
      45 -> 54        -0.19282

 The electronic state is 1-A.
 Alpha  occ. eigenvalues --  -14.30926 -14.30802 -10.20090 -10.20022 -10.17525
 Alpha  occ. eigenvalues --  -10.17499 -10.17424 -10.17367 -10.17364 -10.17299
 Alpha  occ. eigenvalues --  -10.17281  -0.87325  -0.87247  -0.80226  -0.77561
 Alpha  occ. eigenvalues --   -0.73893  -0.69770  -0.65198  -0.60689  -0.58698
 Alpha  occ. eigenvalues --   -0.56684  -0.55950  -0.48845  -0.48147  -0.46446
 Alpha  occ. eigenvalues --   -0.45480  -0.44366  -0.43490  -0.42599  -0.40775
 Alpha  occ. eigenvalues --   -0.40156  -0.38860  -0.37640  -0.36988  -0.35515
 Alpha  occ. eigenvalues --   -0.34547  -0.34039  -0.32976  -0.32177  -0.32025
 Alpha  occ. eigenvalues --   -0.31519  -0.30889  -0.29727  -0.23555  -0.23268
 Alpha virt. eigenvalues --    0.07826   0.08963   0.09819   0.11123   0.11388
 Alpha virt. eigenvalues --    0.12079   0.13088   0.13606   0.14615   0.15352
 Alpha virt. eigenvalues --    0.16294   0.17150   0.17551   0.17957   0.18236

 Mulliken charges:
               1
     1  N   -0.646552
     2  C   -0.052042
     3  C   -0.167969
     4  C   -0.180976
     5  C   -0.177543
     6  C   -0.170607
     7  C   -0.120313
     8  C   -0.146796
     9  C   -0.170353
    10  C   -0.112868
    11  N   -0.082868
    12  H    0.248364
    13  H    0.250195
    14  H    0.080291
    15  H    0.098737
    16  H    0.091109
    17  H    0.094986
    18  H    0.088483
    19  H    0.087203
    20  H    0.083051
    21  H    0.083290
    22  H    0.082203
    23  H    0.076632
    24  H    0.055860
    25  H   -0.031397
    26  H    0.051809
    27  H    0.071477
    28  H    0.119613
    29  H    0.099061
    30  H    0.128967
    31  H    0.115235
    32  H    0.075656
    33  H   -0.021936
 Sum of Mulliken charges =   0.00000

 Dipole moment (field-independent basis, Debye):
    X=              2.7731    Y=             -0.6046    Z=             -2.0618  Tot=              3.5081
 Quadrupole moment (field-independent basis, Debye-Ang):
   XX=            -51.2848   YY=            -77.4358   ZZ=            -73.3193
   XY=              5.9425   XZ=              5.0114   YZ=             -2.7726

 Summary of Natural Population Analysis:

                                       Natural Population
                Natural  -----------------------------------------------
    Atom  No    Charge         Core      Valence    Rydberg      Total
 -----------------------------------------------------------------------
      N    1   -0.92902      1.99968     5.91450    0.01484     7.92902
      C    2   -0.25698      1.99936     4.24459    0.01304     6.25698
      C    3   -0.47466      1.99933     4.46367    0.01166     6.47466
      C    4   -0.45993      1.99933     4.44960    0.01099     6.45993
      C    5   -0.45617      1.99934     4.44552    0.01131     6.45617
      C    6   -0.46341      1.99933     4.45195    0.01214     6.46341
      C    7   -0.46765      1.99932     4.45486    0.01347     6.46765
      C    8   -0.47203      1.99932     4.45938    0.01332     6.47203
      C    9   -0.45243      1.99927     4.44211    0.01105     6.45243
      C   10   -0.36058      1.99933     4.34218    0.01906     6.36058
      N   11   -0.39604      1.99936     5.37399    0.02269     7.39604
      H   12    0.38234      0.00000     0.61473    0.00293     0.61766
      H   13    0.38910      0.00000     0.60824    0.00266     0.61090
      H   14    0.20134      0.00000     0.79592    0.00274     0.79866
      H   15    0.22233      0.00000     0.77552    0.00215     0.77767
      H   16    0.23085      0.00000     0.76624    0.00291     0.76915
      H   17    0.22751      0.00000     0.77042    0.00207     0.77249
      H   18    0.22806      0.00000     0.76958    0.00236     0.77194
      H   19    0.23404      0.00000     0.76389    0.00207     0.76596
      H   20    0.22462      0.00000     0.77182    0.00356     0.77538
      H   21    0.23227      0.00000     0.76524    0.00249     0.76773
      H   22    0.22517      0.00000     0.77193    0.00290     0.77483
      H   23    0.21679      0.00000     0.77692    0.00629     0.78321
      H   24    0.20886      0.00000     0.78217    0.00897     0.79114
      H   25    0.13149      0.00000     0.83018    0.03834     0.86851
      H   26    0.20812      0.00000     0.77278    0.01910     0.79188
      H   27    0.22506      0.00000     0.76526    0.00967     0.77494
      H   28    0.25372      0.00000     0.73946    0.00682     0.74628
      H   29    0.23431      0.00000     0.75261    0.01307     0.76569
      H   30    0.25331      0.00000     0.73340    0.01329     0.74669
      H   31    0.23724      0.00000     0.74627    0.01649     0.76276
      H   32    0.25446      0.00000     0.67867    0.06687     0.74554
      H   33    0.16754      0.00000     0.75105    0.08141     0.83246
 =======================================================================
   * Total *   -0.00037     21.99298    67.54464    0.46275    90.00037

 Normal termination of Gaussian 16 at Fri Jul 19 10:16:26 2024.
