 Gaussian 16, Revision A.03,

 -------------------------------------------------------
 # opt=CalcFc B3LYP/6-31G** SCRF=(Solvent=water) scf=xqc
 -------------------------------------------------------

 ----------------------------------
 SXJVFQLYZSNZBT-UHFFFAOYSA-N_conf_3
 ----------------------------------
 Symbolic Z-matrix:
 Charge =  0 Multiplicity = 1

 SCF Done:  E(RB3LYP) =  -465.745630233     A.U. after   10 cycles
 SCF Done:  E(RB3LYP) =  -465.748610298     A.U. after    9 cycles
 SCF Done:  E(RB3LYP) =  -465.748713430     A.U. after    8 cycles
 SCF Done:  E(RB3LYP) =  -465.748714690     A.U. after    7 cycles
 SCF Done:  E(RB3LYP) =  -465.748714742     A.U. after    6 cycles
 Optimization completed.
    -- Stationary point found.
 Normal termination of Gaussian 16 at Fri Jul 19 09:51:20 2024.

 ----------------------------------------------------------------------
 # freq B3LYP/6-31G** SCRF=(Solvent=water) volume NMR pop=NPA density=c
 urrent Geom=AllCheck Guess=Read
 ----------------------------------------------------------------------

 Structure from the checkpoint file:  "SXJVFQLYZSNZBT-UHFFFAOYSA-N_conf_3_1.chk"
 ----------------------------------
 SXJVFQLYZSNZBT-UHFFFAOYSA-N_conf_3
 ----------------------------------
 Charge =  0 Multiplicity = 1

 SCF Done:  E(RB3LYP) =  -465.748714742     A.U. after    1 cycles

      1  N    Isotropic =   234.1297   Anisotropy =    32.7856

      2  C    Isotropic =   147.4767   Anisotropy =    24.6961

      3  C    Isotropic =   159.2575   Anisotropy =    20.2834

      4  C    Isotropic =   162.6124   Anisotropy =    19.4588

      5  C    Isotropic =   161.1448   Anisotropy =    20.6143

      6  C    Isotropic =   161.0365   Anisotropy =    21.0372

      7  C    Isotropic =   159.0261   Anisotropy =    23.1970

      8  C    Isotropic =   164.3743   Anisotropy =    18.4115

      9  C    Isotropic =   154.6159   Anisotropy =    26.4472

     10  C    Isotropic =   147.1848   Anisotropy =    25.8721

     11  N    Isotropic =   237.4277   Anisotropy =    41.3054

     12  H    Isotropic =    31.1481   Anisotropy =    15.6137

     13  H    Isotropic =    31.8113   Anisotropy =    12.4875

     14  H    Isotropic =    28.6096   Anisotropy =     8.4439

     15  H    Isotropic =    29.3857   Anisotropy =     6.5287

     16  H    Isotropic =    30.1097   Anisotropy =     5.9764

     17  H    Isotropic =    30.7086   Anisotropy =     5.5365

     18  H    Isotropic =    30.7035   Anisotropy =     6.6477

     19  H    Isotropic =    29.4766   Anisotropy =     7.5749

     20  H    Isotropic =    30.4637   Anisotropy =     6.8032

     21  H    Isotropic =    30.2144   Anisotropy =     5.6346

     22  H    Isotropic =    30.1463   Anisotropy =     5.0659

     23  H    Isotropic =    30.4880   Anisotropy =     7.1838

     24  H    Isotropic =    30.4388   Anisotropy =     5.9087

     25  H    Isotropic =    30.3230   Anisotropy =     7.2622

     26  H    Isotropic =    30.3817   Anisotropy =     5.5298

     27  H    Isotropic =    30.4719   Anisotropy =     6.0282

     28  H    Isotropic =    30.6096   Anisotropy =     6.2554

     29  H    Isotropic =    30.4184   Anisotropy =     6.4381

     30  H    Isotropic =    29.0243   Anisotropy =     8.5725

     31  H    Isotropic =    29.3435   Anisotropy =     7.0102

     32  H    Isotropic =    30.9034   Anisotropy =    11.7102

     33  H    Isotropic =    31.9000   Anisotropy =    13.4100

  Exact polarizability: 155.326  -1.996 137.127  -0.656   0.082 135.178
 Approx polarizability: 151.415  -0.861 148.471  -1.811   0.347 148.686

                      1                      2                      3
                      A                      A                      A
 Frequencies --     21.6225                29.5989                39.2368
 Red. masses --      3.8529                 2.4376                 2.8037
 Frc consts  --      0.0011                 0.0013                 0.0025
 IR Inten    --      0.3026                 1.3730                 0.6819

                      4                      5                      6
                      A                      A                      A
 Frequencies --     78.7774                93.3443               108.5604
 Red. masses --      2.4266                 3.2992                 2.6410
 Frc consts  --      0.0089                 0.0169                 0.0183
 IR Inten    --      0.3384                 2.6141                 0.5483

                      7                      8                      9
                      A                      A                      A
 Frequencies --    144.0582               150.5716               195.7757
 Red. masses --      2.1686                 1.9929                 1.8738
 Frc consts  --      0.0265                 0.0266                 0.0423
 IR Inten    --      5.0644                 4.4229                 9.8807

                     10                     11                     12
                      A                      A                      A
 Frequencies --    217.2164               246.9639               270.2795
 Red. masses --      1.6756                 1.8801                 1.8114
 Frc consts  --      0.0466                 0.0676                 0.0780
 IR Inten    --     39.2393                 3.8775                13.5531

                     13                     14                     15
                      A                      A                      A
 Frequencies --    287.9472               300.6073               327.8215
 Red. masses --      1.6360                 1.4826                 1.9115
 Frc consts  --      0.0799                 0.0789                 0.1210
 IR Inten    --     14.4682                53.6305                13.5718

                     16                     17                     18
                      A                      A                      A
 Frequencies --    382.7756               473.6274               490.2867
 Red. masses --      2.7903                 2.4523                 2.2233
 Frc consts  --      0.2409                 0.3241                 0.3149
 IR Inten    --      5.3277                10.7010                 6.9918

                     19                     20                     21
                      A                      A                      A
 Frequencies --    560.4942               733.0576               747.4249
 Red. masses --      2.2450                 1.2377                 1.1824
 Frc consts  --      0.4155                 0.3919                 0.3892
 IR Inten    --      4.1738                 8.3006                 2.2507

                     22                     23                     24
                      A                      A                      A
 Frequencies --    766.2769               797.3394               842.2218
 Red. masses --      1.2984                 1.4581                 1.4298
 Frc consts  --      0.4492                 0.5462                 0.5975
 IR Inten    --      2.6786                 9.1833                72.5588

                     25                     26                     27
                      A                      A                      A
 Frequencies --    846.5381               866.6471               890.4999
 Red. masses --      1.7443                 2.5273                 1.7400
 Frc consts  --      0.7365                 1.1184                 0.8129
 IR Inten    --     13.3584                52.3146                74.3733

                     28                     29                     30
                      A                      A                      A
 Frequencies --    907.8643               930.6375               960.9324
 Red. masses --      1.5467                 1.7057                 1.7205
 Frc consts  --      0.7511                 0.8704                 0.9360
 IR Inten    --     73.7517                99.5086                42.5876

                     31                     32                     33
                      A                      A                      A
 Frequencies --    974.1340              1006.9394              1028.7760
 Red. masses --      1.8461                 1.5076                 1.7899
 Frc consts  --      1.0322                 0.9006                 1.1161
 IR Inten    --     43.4878                14.1385                 4.1595

                     34                     35                     36
                      A                      A                      A
 Frequencies --   1044.6774              1060.7117              1068.8057
 Red. masses --      1.8516                 1.5013                 2.2331
 Frc consts  --      1.1906                 0.9952                 1.5030
 IR Inten    --     12.9961                 4.6837                12.2940

                     37                     38                     39
                      A                      A                      A
 Frequencies --   1084.1752              1089.2777              1108.8413
 Red. masses --      2.3815                 2.2237                 2.0261
 Frc consts  --      1.6493                 1.5545                 1.4678
 IR Inten    --      8.1014                 0.9373                 5.9800

                     40                     41                     42
                      A                      A                      A
 Frequencies --   1127.6030              1158.5881              1163.7173
 Red. masses --      1.3780                 1.7737                 1.6393
 Frc consts  --      1.0323                 1.4028                 1.3080
 IR Inten    --      3.4968                 9.2420                 8.8095

                     43                     44                     45
                      A                      A                      A
 Frequencies --   1218.9121              1257.8507              1267.7559
 Red. masses --      1.5371                 1.3836                 1.3723
 Frc consts  --      1.3455                 1.2898                 1.2995
 IR Inten    --      3.4231                 3.7852                 9.0007

                     46                     47                     48
                      A                      A                      A
 Frequencies --   1289.6773              1303.8146              1322.4683
 Red. masses --      1.3318                 1.3179                 1.2448
 Frc consts  --      1.3052                 1.3199                 1.2827
 IR Inten    --      0.9515                 4.2928                 2.5618

                     49                     50                     51
                      A                      A                      A
 Frequencies --   1325.1038              1335.3587              1339.9804
 Red. masses --      1.1896                 1.1250                 1.1507
 Frc consts  --      1.2307                 1.1819                 1.2173
 IR Inten    --      0.3250                 2.2354                 1.7697

                     52                     53                     54
                      A                      A                      A
 Frequencies --   1346.7885              1360.9519              1379.1283
 Red. masses --      1.1824                 1.1766                 1.4133
 Frc consts  --      1.2637                 1.2840                 1.5837
 IR Inten    --      7.4985                 2.4438                 3.5390

                     55                     56                     57
                      A                      A                      A
 Frequencies --   1394.3871              1399.9156              1407.4147
 Red. masses --      1.2945                 1.1901                 1.5725
 Frc consts  --      1.4830                 1.3742                 1.8352
 IR Inten    --     20.0887                 0.0217                 1.0390

                     58                     59                     60
                      A                      A                      A
 Frequencies --   1410.5752              1415.1570              1429.0534
 Red. masses --      1.5320                 1.5370                 1.4101
 Frc consts  --      1.7959                 1.8135                 1.6966
 IR Inten    --      5.5051                 4.2365                22.8089

                     61                     62                     63
                      A                      A                      A
 Frequencies --   1481.6259              1483.9902              1488.5315
 Red. masses --      1.0766                 1.0844                 1.0891
 Frc consts  --      1.3925                 1.4070                 1.4218
 IR Inten    --      1.2709                 0.4857                 0.6324

                     64                     65                     66
                      A                      A                      A
 Frequencies --   1493.4772              1497.1483              1506.7170
 Red. masses --      1.0898                 1.0916                 1.0933
 Frc consts  --      1.4322                 1.4416                 1.4623
 IR Inten    --      1.5568                 0.2140                 5.8486

                     67                     68                     69
                      A                      A                      A
 Frequencies --   1507.6788              1513.5794              1518.2014
 Red. masses --      1.0996                 1.0988                 1.0886
 Frc consts  --      1.4727                 1.4831                 1.4783
 IR Inten    --      1.7934                 3.0407                 2.5154

                     70                     71                     72
                      A                      A                      A
 Frequencies --   1654.4656              1659.9994              2960.6375
 Red. masses --      1.0875                 1.0880                 1.0721
 Frc consts  --      1.7539                 1.7664                 5.5368
 IR Inten    --     34.5535                29.7895               138.0902

                     73                     74                     75
                      A                      A                      A
 Frequencies --   3005.8587              3006.3254              3007.9382
 Red. masses --      1.0625                 1.0630                 1.0620
 Frc consts  --      5.6562                 5.6606                 5.6610
 IR Inten    --      5.1484                10.4032                20.5198

                     76                     77                     78
                      A                      A                      A
 Frequencies --   3014.1428              3015.5470              3017.2766
 Red. masses --      1.0677                 1.0629                 1.0619
 Frc consts  --      5.7152                 5.6946                 5.6961
 IR Inten    --     68.3231                49.0586                92.1134

                     79                     80                     81
                      A                      A                      A
 Frequencies --   3018.6856              3025.9650              3037.8941
 Red. masses --      1.0623                 1.0647                 1.0954
 Frc consts  --      5.7036                 5.7439                 5.9563
 IR Inten    --     98.1038                43.1781                33.2883

                     82                     83                     84
                      A                      A                      A
 Frequencies --   3041.9212              3046.5208              3047.2108
 Red. masses --      1.0979                 1.0927                 1.0961
 Frc consts  --      5.9856                 5.9752                 5.9964
 IR Inten    --     11.0873                68.8415                15.6394

                     85                     86                     87
                      A                      A                      A
 Frequencies --   3061.0557              3065.1748              3066.9315
 Red. masses --      1.0944                 1.1040                 1.1014
 Frc consts  --      6.0420                 6.1113                 6.1041
 IR Inten    --    110.1596                63.6647               147.3198

                     88                     89                     90
                      A                      A                      A
 Frequencies --   3069.8196              3082.5474              3475.6126
 Red. masses --      1.1052                 1.0971                 1.0504
 Frc consts  --      6.1364                 6.1422                 7.4758
 IR Inten    --    186.5043               122.2592                 1.4068

                     91                     92                     93
                      A                      A                      A
 Frequencies --   3475.6296              3554.9131              3556.5373
 Red. masses --      1.0510                 1.0913                 1.0912
 Frc consts  --      7.4802                 8.1254                 8.1323
 IR Inten    --      1.4960                 0.0792                 0.1001

 - Thermochemistry -
 -------------------
 Temperature   298.150 Kelvin.  Pressure   1.00000 Atm.
 Atom     1 has atomic number  7 and mass  14.00307

 Molecular mass:   158.17830 amu.
 Principal axes and moments of inertia in atomic units:
                           1         2         3
     Eigenvalues --   830.715086622.234427038.45013
           X            0.99999  -0.00466   0.00229
           Y            0.00466   0.99998  -0.00343
           Z           -0.00228   0.00344   0.99999
 This molecule is an asymmetric top.
 Rotational symmetry number  1.
 Warning -- assumption of classical behavior for rotation
           may cause significant error
 Rotational temperatures (Kelvin)      0.10426     0.01308     0.01231
 Rotational constants (GHZ):           2.17252     0.27253     0.25641
 Zero-point vibrational energy     815189.9 (Joules/Mol)
                                  194.83506 (Kcal/Mol)
 Warning -- explicit consideration of  19 degrees of freedom as
           vibrations may cause significant error
 Vibrational temperatures:     31.11    42.59    56.45   113.34   134.30
          (Kelvin)            156.19   207.27   216.64   281.68   312.53
                              355.33   388.87   414.29   432.51   471.66
                              550.73   681.44   705.41   806.43  1054.71
                             1075.38  1102.50  1147.19  1211.77  1217.98
                             1246.91  1281.23  1306.21  1338.98  1382.57
                             1401.56  1448.76  1480.18  1503.06  1526.13
                             1537.77  1559.89  1567.23  1595.38  1622.37
                             1666.95  1674.33  1753.74  1809.77  1824.02
                             1855.56  1875.90  1902.74  1906.53  1921.28
                             1927.93  1937.73  1958.11  1984.26  2006.21
                             2014.17  2024.96  2029.50  2036.10  2056.09
                             2131.73  2135.13  2141.66  2148.78  2154.06
                             2167.83  2169.21  2177.70  2184.35  2380.41
                             2388.37  4259.70  4324.76  4325.43  4327.75
                             4336.68  4338.70  4341.19  4343.22  4353.69
                             4370.85  4376.65  4383.26  4384.26  4404.18
                             4410.10  4412.63  4416.79  4435.10  5000.63
                             5000.66  5114.73  5117.06

 Zero-point correction=                           0.310489 (Hartree/Particle)
 Thermal correction to Energy=                    0.325084
 Thermal correction to Enthalpy=                  0.326028
 Thermal correction to Gibbs Free Energy=         0.266651
 Sum of electronic and zero-point Energies=           -465.438225
 Sum of electronic and thermal Energies=              -465.423631
 Sum of electronic and thermal Enthalpies=            -465.422686
 Sum of electronic and thermal Free Energies=         -465.482064

                     E (Thermal)             CV                S
                      KCal/Mol        Cal/Mol-Kelvin    Cal/Mol-Kelvin
 Total                  203.993             52.152            124.970
 Electronic               0.000              0.000              0.000
 Translational            0.889              2.981             41.085
 Rotational               0.889              2.981             32.027
 Vibrational            202.216             46.191             51.859
 Vibration     1          0.593              1.985              6.479
 Vibration     2          0.593              1.984              5.856
 Vibration     3          0.594              1.981              5.297
 Vibration     4          0.600              1.963              3.921
 Vibration     5          0.602              1.954              3.589
 Vibration     6          0.606              1.942              3.294
 Vibration     7          0.616              1.909              2.749
 Vibration     8          0.618              1.902              2.665
 Vibration     9          0.636              1.846              2.172
 Vibration    10          0.646              1.815              1.982
 Vibration    11          0.661              1.768              1.752
 Vibration    12          0.674              1.728              1.594
 Vibration    13          0.685              1.696              1.486
 Vibration    14          0.693              1.673              1.414
 Vibration    15          0.711              1.620              1.271
 Vibration    16          0.752              1.507              1.028
 Vibration    17          0.830              1.309              0.727
 Vibration    18          0.846              1.272              0.683
 Vibration    19          0.916              1.117              0.523

 Optimization completed on the basis of negligible forces.
    -- Stationary point found.
 Normal termination of Gaussian 16 at Fri Jul 19 10:02:56 2024.
 Gaussian 16:  ES64L-G16RevA.03 25-Dec-2016

 ----------------------------------------------------------------------
 # TD(NStates=10, Root=1) B3LYP/6-31G** SCRF=(Solvent=water) volume pop
 =NPA density=current Geom=AllCheck Guess=Read
 ----------------------------------------------------------------------

 Structure from the checkpoint file:  "SXJVFQLYZSNZBT-UHFFFAOYSA-N_conf_3_2.chk"
 ----------------------------------
 SXJVFQLYZSNZBT-UHFFFAOYSA-N_conf_3
 ----------------------------------
 Charge =  0 Multiplicity = 1

                         Standard orientation:
 ---------------------------------------------------------------------
 Center     Atomic      Atomic             Coordinates (Angstroms)
 Number     Number       Type             X           Y           Z
 ---------------------------------------------------------------------
      1          7           0       -5.010226    1.027089    0.671109
      2          6           0       -4.425113    0.607234   -0.613366
      3          6           0       -2.906068    0.428234   -0.509429
      4          6           0       -2.473299   -0.685850    0.453262
      5          6           0       -0.954310   -0.798413    0.660726
      6          6           0       -0.169339   -1.223760   -0.589695
      7          6           0        1.327840   -1.477420   -0.347512
      8          6           0        2.138675   -0.229827    0.030792
      9          6           0        3.638686   -0.509913    0.185653
     10          6           0        4.477338    0.721359    0.570639
     11          7           0        4.518600    1.824520   -0.401615
     12          1           0       -6.020105    1.105018    0.566330
     13          1           0       -4.690448    1.971908    0.881245
     14          1           0       -4.642498    1.307463   -1.437629
     15          1           0       -4.884118   -0.350571   -0.891181
     16          1           0       -2.518279    0.232708   -1.516651
     17          1           0       -2.457198    1.381466   -0.191100
     18          1           0       -2.861029   -1.647299    0.085141
     19          1           0       -2.956718   -0.511858    1.420825
     20          1           0       -0.761079   -1.529247    1.458557
     21          1           0       -0.574223    0.162757    1.032204
     22          1           0       -0.278209   -0.465670   -1.376857
     23          1           0       -0.621191   -2.142570   -0.988939
     24          1           0        1.444121   -2.236998    0.439102
     25          1           0        1.762741   -1.914498   -1.256764
     26          1           0        1.984729    0.538208   -0.740239
     27          1           0        1.757859    0.196137    0.968693
     28          1           0        4.032237   -0.929919   -0.751779
     29          1           0        3.784959   -1.283623    0.952772
     30          1           0        5.510941    0.402982    0.754540
     31          1           0        4.106978    1.129822    1.520223
     32          1           0        3.574801    2.173674   -0.557220
     33          1           0        4.820646    1.458979   -1.304148
 ---------------------------------------------------------------------

 SCF Done:  E(RB3LYP) =  -465.748714742     A.U. after    1 cycles

 Excitation energies and oscillator strengths:

 Excited State   1:      Singlet-A      7.3959 eV  167.64 nm  f=0.0175  <S**2>=0.000
      45 -> 47         0.68680
      45 -> 48        -0.10881
 This state for optimization and/or second-order correction.
 Total Energy, E(TD-HF/TD-DFT) =  -465.476921523
 Copying the excited state density for this state as the 1-particle RhoCI density.

 Excited State   2:      Singlet-A      7.4099 eV  167.32 nm  f=0.0241  <S**2>=0.000
      44 -> 46         0.68449
      44 -> 48        -0.13785

 Excited State   3:      Singlet-A      8.2859 eV  149.63 nm  f=0.0021  <S**2>=0.000
      45 -> 46         0.67907
      45 -> 48         0.17993

 Excited State   4:      Singlet-A      8.4059 eV  147.50 nm  f=0.0006  <S**2>=0.000
      44 -> 47         0.64406
      44 -> 48         0.26571

 Excited State   5:      Singlet-A      8.4628 eV  146.50 nm  f=0.0118  <S**2>=0.000
      45 -> 46        -0.18661
      45 -> 47         0.13244
      45 -> 48         0.61072
      45 -> 49         0.11311
      45 -> 51         0.22368

 Excited State   6:      Singlet-A      8.4859 eV  146.11 nm  f=0.0145  <S**2>=0.000
      44 -> 46         0.14189
      44 -> 47        -0.23948
      44 -> 48         0.56878
      44 -> 49        -0.18860
      44 -> 50         0.18556
      44 -> 51        -0.12271

 Excited State   7:      Singlet-A      8.5691 eV  144.69 nm  f=0.0612  <S**2>=0.000
      44 -> 47         0.14917
      44 -> 48        -0.17787
      44 -> 49        -0.13737
      44 -> 50         0.55924
      44 -> 52         0.11164
      44 -> 53        -0.26785
      44 -> 54        -0.12121

 Excited State   8:      Singlet-A      8.6294 eV  143.68 nm  f=0.0155  <S**2>=0.000
      45 -> 48        -0.16977
      45 -> 49         0.43222
      45 -> 50         0.30017
      45 -> 51         0.19198
      45 -> 52         0.19440
      45 -> 53         0.29293
      45 -> 55        -0.14837

 Excited State   9:      Singlet-A      8.6827 eV  142.80 nm  f=0.0297  <S**2>=0.000
      44 -> 48         0.13910
      44 -> 49         0.58489
      44 -> 50         0.12779
      44 -> 52        -0.19800
      44 -> 53        -0.21456
      44 -> 55        -0.12567

 Excited State  10:      Singlet-A      8.8380 eV  140.28 nm  f=0.0747  <S**2>=0.000
      45 -> 48         0.10699
      45 -> 49        -0.27314
      45 -> 50         0.37712
      45 -> 52        -0.36735
      45 -> 53         0.26844
      45 -> 54        -0.21730

 The electronic state is 1-A.
 Alpha  occ. eigenvalues --  -14.30911 -14.30773 -10.20071 -10.20030 -10.17395
 Alpha  occ. eigenvalues --  -10.17358 -10.17299 -10.17288 -10.17243 -10.17189
 Alpha  occ. eigenvalues --  -10.16977  -0.87361  -0.87233  -0.80131  -0.77355
 Alpha  occ. eigenvalues --   -0.73633  -0.69596  -0.65388  -0.61042  -0.58313
 Alpha  occ. eigenvalues --   -0.57121  -0.55104  -0.48558  -0.48034  -0.46285
 Alpha  occ. eigenvalues --   -0.45732  -0.43863  -0.42731  -0.42603  -0.41093
 Alpha  occ. eigenvalues --   -0.40346  -0.39828  -0.37654  -0.36736  -0.35116
 Alpha  occ. eigenvalues --   -0.34627  -0.34222  -0.32393  -0.32212  -0.32094
 Alpha  occ. eigenvalues --   -0.30778  -0.30500  -0.30029  -0.23479  -0.23331
 Alpha virt. eigenvalues --    0.08456   0.08716   0.10090   0.11424   0.11615
 Alpha virt. eigenvalues --    0.12432   0.13140   0.13506   0.14893   0.15465
 Alpha virt. eigenvalues --    0.15792   0.16870   0.17732   0.18111   0.18238

 Mulliken charges:
               1
     1  N   -0.040843
     2  C   -0.078571
     3  C   -0.145314
     4  C   -0.163538
     5  C   -0.179682
     6  C   -0.175375
     7  C   -0.181316
     8  C   -0.171289
     9  C   -0.181191
    10  C   -0.066296
    11  N   -0.635804
    12  H   -0.029690
    13  H   -0.012762
    14  H    0.099327
    15  H    0.084763
    16  H    0.066772
    17  H    0.057189
    18  H    0.086067
    19  H    0.073818
    20  H    0.090292
    21  H    0.094483
    22  H    0.089903
    23  H    0.086207
    24  H    0.088410
    25  H    0.087358
    26  H    0.085346
    27  H    0.094958
    28  H    0.089406
    29  H    0.089167
    30  H    0.098402
    31  H    0.100254
    32  H    0.251363
    33  H    0.248186
 Sum of Mulliken charges =  -0.00000

 Dipole moment (field-independent basis, Debye):
    X=             -0.8970    Y=             -1.8319    Z=             -1.0741  Tot=              2.3053
 Quadrupole moment (field-independent basis, Debye-Ang):
   XX=            -87.8706   YY=            -81.0613   ZZ=            -71.9933
   XY=             -5.1956   XZ=             -0.7052   YZ=             -1.9789

 Summary of Natural Population Analysis:

                                       Natural Population
                Natural  -----------------------------------------------
    Atom  No    Charge         Core      Valence    Rydberg      Total
 -----------------------------------------------------------------------
      N    1   -0.38282      1.99934     5.35825    0.02522     7.38282
      C    2   -0.35418      1.99931     4.33623    0.01863     6.35418
      C    3   -0.47952      1.99932     4.46704    0.01317     6.47952
      C    4   -0.46123      1.99933     4.44887    0.01303     6.46123
      C    5   -0.46401      1.99933     4.45320    0.01147     6.46401
      C    6   -0.46251      1.99933     4.45126    0.01192     6.46251
      C    7   -0.45641      1.99934     4.44584    0.01123     6.45641
      C    8   -0.46789      1.99933     4.45753    0.01102     6.46789
      C    9   -0.48013      1.99932     4.47083    0.00997     6.48013
      C   10   -0.26582      1.99936     4.25048    0.01598     6.26582
      N   11   -0.92677      1.99971     5.91197    0.01510     7.92677
      H   12    0.16442      0.00000     0.74784    0.08774     0.83558
      H   13    0.18326      0.00000     0.72914    0.08759     0.81674
      H   14    0.24633      0.00000     0.71856    0.03511     0.75367
      H   15    0.21596      0.00000     0.75907    0.02496     0.78404
      H   16    0.20811      0.00000     0.77917    0.01272     0.79189
      H   17    0.20950      0.00000     0.76954    0.02096     0.79050
      H   18    0.22766      0.00000     0.76692    0.00542     0.77234
      H   19    0.22458      0.00000     0.76784    0.00759     0.77542
      H   20    0.23680      0.00000     0.76116    0.00204     0.76320
      H   21    0.22859      0.00000     0.76888    0.00253     0.77141
      H   22    0.22574      0.00000     0.77063    0.00364     0.77426
      H   23    0.23377      0.00000     0.76388    0.00235     0.76623
      H   24    0.22762      0.00000     0.77006    0.00232     0.77238
      H   25    0.23456      0.00000     0.76337    0.00207     0.76544
      H   26    0.22404      0.00000     0.77299    0.00298     0.77596
      H   27    0.22906      0.00000     0.76884    0.00210     0.77094
      H   28    0.22698      0.00000     0.77057    0.00245     0.77302
      H   29    0.23461      0.00000     0.76299    0.00241     0.76539
      H   30    0.22867      0.00000     0.76943    0.00191     0.77133
      H   31    0.22300      0.00000     0.77486    0.00215     0.77700
      H   32    0.38412      0.00000     0.61325    0.00263     0.61588
      H   33    0.38267      0.00000     0.61436    0.00297     0.61733
 =======================================================================
   * Total *   -0.00124     21.99303    67.53482    0.47339    90.00124

 Normal termination of Gaussian 16 at Fri Jul 19 10:17:17 2024.
