 Gaussian 16, Revision A.03,

 -------------------------------------------------------
 # opt=CalcFc B3LYP/6-31G** SCRF=(Solvent=water) scf=xqc
 -------------------------------------------------------

 ----------------------------------
 SXJVFQLYZSNZBT-UHFFFAOYSA-N_conf_1
 ----------------------------------
 Symbolic Z-matrix:
 Charge =  0 Multiplicity = 1

 SCF Done:  E(RB3LYP) =  -465.737763082     A.U. after   11 cycles
 SCF Done:  E(RB3LYP) =  -465.742219138     A.U. after    9 cycles
 SCF Done:  E(RB3LYP) =  -465.742617239     A.U. after    9 cycles
 SCF Done:  E(RB3LYP) =  -465.742682629     A.U. after    8 cycles
 SCF Done:  E(RB3LYP) =  -465.742689313     A.U. after    8 cycles
 SCF Done:  E(RB3LYP) =  -465.742701443     A.U. after    8 cycles
 SCF Done:  E(RB3LYP) =  -465.742703392     A.U. after    7 cycles
 SCF Done:  E(RB3LYP) =  -465.742703302     A.U. after    6 cycles
 SCF Done:  E(RB3LYP) =  -465.742703280     A.U. after    5 cycles
 Optimization completed.
    -- Stationary point found.
 Normal termination of Gaussian 16 at Fri Jul 19 09:56:13 2024.

 ----------------------------------------------------------------------
 # freq B3LYP/6-31G** SCRF=(Solvent=water) volume NMR pop=NPA density=c
 urrent Geom=AllCheck Guess=Read
 ----------------------------------------------------------------------

 Structure from the checkpoint file:  "SXJVFQLYZSNZBT-UHFFFAOYSA-N_conf_1_1.chk"
 ----------------------------------
 SXJVFQLYZSNZBT-UHFFFAOYSA-N_conf_1
 ----------------------------------
 Charge =  0 Multiplicity = 1

 SCF Done:  E(RB3LYP) =  -465.742703280     A.U. after    1 cycles

      1  N    Isotropic =   232.5474   Anisotropy =    33.3511

      2  C    Isotropic =   146.1213   Anisotropy =    38.4342

      3  C    Isotropic =   155.6846   Anisotropy =    34.9774

      4  C    Isotropic =   163.0832   Anisotropy =    22.5651

      5  C    Isotropic =   158.4658   Anisotropy =    24.3017

      6  C    Isotropic =   159.4146   Anisotropy =    26.9604

      7  C    Isotropic =   160.5157   Anisotropy =    23.3472

      8  C    Isotropic =   159.1219   Anisotropy =    12.5530

      9  C    Isotropic =   156.9383   Anisotropy =    11.3005

     10  C    Isotropic =   146.4144   Anisotropy =    22.3643

     11  N    Isotropic =   228.3476   Anisotropy =    36.6424

     12  H    Isotropic =    31.0639   Anisotropy =    15.4799

     13  H    Isotropic =    31.5891   Anisotropy =    12.1635

     14  H    Isotropic =    29.2823   Anisotropy =     4.9182

     15  H    Isotropic =    28.8342   Anisotropy =     5.8242

     16  H    Isotropic =    30.3455   Anisotropy =     5.0148

     17  H    Isotropic =    30.5308   Anisotropy =     5.0013

     18  H    Isotropic =    30.1794   Anisotropy =     5.7794

     19  H    Isotropic =    30.6331   Anisotropy =     5.7373

     20  H    Isotropic =    30.4871   Anisotropy =     5.9752

     21  H    Isotropic =    30.2505   Anisotropy =     6.9953

     22  H    Isotropic =    30.5393   Anisotropy =     7.0385

     23  H    Isotropic =    29.0211   Anisotropy =     7.6319

     24  H    Isotropic =    30.4701   Anisotropy =     7.1961

     25  H    Isotropic =    30.0522   Anisotropy =     4.1806

     26  H    Isotropic =    29.9293   Anisotropy =     8.9210

     27  H    Isotropic =    30.5191   Anisotropy =     6.4444

     28  H    Isotropic =    30.1371   Anisotropy =     9.2556

     29  H    Isotropic =    30.5276   Anisotropy =     6.2648

     30  H    Isotropic =    29.2739   Anisotropy =     5.1400

     31  H    Isotropic =    28.5810   Anisotropy =     9.4800

     32  H    Isotropic =    31.5220   Anisotropy =    11.7755

     33  H    Isotropic =    31.0861   Anisotropy =    14.5872

  Exact polarizability: 154.680   2.309 141.200   0.042  -0.128 132.881
 Approx polarizability: 151.525   1.468 150.114  -0.387  -0.266 146.211

                      1                      2                      3
                      A                      A                      A
 Frequencies --     33.0519                47.2098                54.0651
 Red. masses --      2.9462                 2.2990                 2.7827
 Frc consts  --      0.0019                 0.0030                 0.0048
 IR Inten    --      1.4612                 4.0849                 0.6765

                      4                      5                      6
                      A                      A                      A
 Frequencies --     74.6139                98.8962               109.1632
 Red. masses --      2.5085                 2.0559                 2.9462
 Frc consts  --      0.0082                 0.0118                 0.0207
 IR Inten    --      3.8101                 2.0074                 0.2421

                      7                      8                      9
                      A                      A                      A
 Frequencies --    139.0512               144.2132               170.2311
 Red. masses --      2.3809                 2.3569                 2.7908
 Frc consts  --      0.0271                 0.0289                 0.0476
 IR Inten    --      1.6751                 6.9895                 2.2799

                     10                     11                     12
                      A                      A                      A
 Frequencies --    232.1384               251.0100               264.3674
 Red. masses --      1.5186                 1.6263                 1.4239
 Frc consts  --      0.0482                 0.0604                 0.0586
 IR Inten    --     36.9858                20.6826                30.5338

                     13                     14                     15
                      A                      A                      A
 Frequencies --    273.3934               304.1177               347.5829
 Red. masses --      1.7579                 1.7048                 2.4306
 Frc consts  --      0.0774                 0.0929                 0.1730
 IR Inten    --     27.5239                17.2372                 7.1254

                     16                     17                     18
                      A                      A                      A
 Frequencies --    364.8819               440.9757               468.3454
 Red. masses --      3.0843                 3.2315                 1.7745
 Frc consts  --      0.2419                 0.3702                 0.2293
 IR Inten    --      1.4168                 1.5206                12.9282

                     19                     20                     21
                      A                      A                      A
 Frequencies --    535.8883               736.0205               742.9748
 Red. masses --      2.3262                 1.1521                 1.5294
 Frc consts  --      0.3936                 0.3677                 0.4974
 IR Inten    --      4.3899                 8.7025                 7.2579

                     22                     23                     24
                      A                      A                      A
 Frequencies --    765.4861               797.6776               833.4167
 Red. masses --      1.4078                 1.3757                 1.4731
 Frc consts  --      0.4860                 0.5157                 0.6028
 IR Inten    --      4.0426                 0.7660                28.9666

                     25                     26                     27
                      A                      A                      A
 Frequencies --    853.4900               878.5277               898.1306
 Red. masses --      1.5981                 1.3404                 1.8791
 Frc consts  --      0.6859                 0.6095                 0.8931
 IR Inten    --     48.4074               163.2384                30.4672

                     28                     29                     30
                      A                      A                      A
 Frequencies --    916.4137               953.9972               958.7064
 Red. masses --      1.5336                 1.9365                 1.9265
 Frc consts  --      0.7588                 1.0384                 1.0433
 IR Inten    --     63.4638                 6.6995                23.3733

                     31                     32                     33
                      A                      A                      A
 Frequencies --    989.4019              1004.0632              1041.5131
 Red. masses --      1.7969                 2.0757                 2.8550
 Frc consts  --      1.0364                 1.2329                 1.8247
 IR Inten    --      9.7477                33.0202                 0.4791

                     34                     35                     36
                      A                      A                      A
 Frequencies --   1046.6133              1067.8672              1072.3002
 Red. masses --      1.6542                 1.6117                 2.0321
 Frc consts  --      1.0676                 1.0829                 1.3766
 IR Inten    --      6.8566                 1.7120                 2.2715

                     37                     38                     39
                      A                      A                      A
 Frequencies --   1085.6998              1094.8182              1124.2906
 Red. masses --      2.3443                 2.1312                 1.9385
 Frc consts  --      1.6281                 1.5050                 1.4437
 IR Inten    --     15.5570                 1.7682                 5.5953

                     40                     41                     42
                      A                      A                      A
 Frequencies --   1136.8988              1149.1786              1177.6320
 Red. masses --      1.3931                 1.5973                 1.5867
 Frc consts  --      1.0609                 1.2428                 1.2964
 IR Inten    --     10.5317                 3.2039                 4.7428

                     43                     44                     45
                      A                      A                      A
 Frequencies --   1238.7256              1244.0893              1270.8087
 Red. masses --      1.3935                 1.4553                 1.3042
 Frc consts  --      1.2598                 1.3272                 1.2410
 IR Inten    --      3.4089                 2.0437                 1.4846

                     46                     47                     48
                      A                      A                      A
 Frequencies --   1291.5672              1307.9325              1314.0270
 Red. masses --      1.2285                 1.2287                 1.2474
 Frc consts  --      1.2074                 1.2384                 1.2690
 IR Inten    --      1.5203                 3.4241                 2.6359

                     49                     50                     51
                      A                      A                      A
 Frequencies --   1329.5827              1333.4455              1338.3252
 Red. masses --      1.1456                 1.1224                 1.1567
 Frc consts  --      1.1932                 1.1759                 1.2206
 IR Inten    --      0.1735                 2.9463                 3.3752

                     52                     53                     54
                      A                      A                      A
 Frequencies --   1342.5572              1355.3274              1374.9925
 Red. masses --      1.1509                 1.1703                 1.3340
 Frc consts  --      1.2222                 1.2666                 1.4860
 IR Inten    --      1.3696                 2.9444                 2.0633

                     55                     56                     57
                      A                      A                      A
 Frequencies --   1393.2688              1398.3929              1407.8234
 Red. masses --      1.4051                 1.3703                 1.5417
 Frc consts  --      1.6071                 1.5788                 1.8003
 IR Inten    --      8.9574                 7.6184                 1.4045

                     58                     59                     60
                      A                      A                      A
 Frequencies --   1411.9561              1433.1048              1437.3339
 Red. masses --      1.5318                 1.4300                 1.4978
 Frc consts  --      1.7993                 1.7303                 1.8231
 IR Inten    --      6.7390                14.9027                18.4556

                     61                     62                     63
                      A                      A                      A
 Frequencies --   1482.2098              1484.7351              1488.9737
 Red. masses --      1.0878                 1.0790                 1.0814
 Frc consts  --      1.4080                 1.4014                 1.4125
 IR Inten    --      3.0736                 0.5930                 1.2241

                     64                     65                     66
                      A                      A                      A
 Frequencies --   1494.8338              1495.1855              1505.1723
 Red. masses --      1.0963                 1.0878                 1.0937
 Frc consts  --      1.4433                 1.4328                 1.4598
 IR Inten    --      6.3013                 0.8538                 2.9460

                     67                     68                     69
                      A                      A                      A
 Frequencies --   1512.3196              1519.4032              1528.0511
 Red. masses --      1.0950                 1.0879                 1.0933
 Frc consts  --      1.4755                 1.4797                 1.5040
 IR Inten    --      3.6254                 2.4253                 1.3428

                     70                     71                     72
                      A                      A                      A
 Frequencies --   1654.0831              1656.5118              2953.6241
 Red. masses --      1.0878                 1.0870                 1.0722
 Frc consts  --      1.7536                 1.7575                 5.5112
 IR Inten    --     36.7651                35.2251               118.7686

                     73                     74                     75
                      A                      A                      A
 Frequencies --   2956.8235              3002.4140              3005.7421
 Red. masses --      1.0730                 1.0612                 1.0641
 Frc consts  --      5.5269                 5.6364                 5.6640
 IR Inten    --    135.2751                11.6044                40.4166

                     76                     77                     78
                      A                      A                      A
 Frequencies --   3009.5435              3012.0481              3013.9765
 Red. masses --      1.0632                 1.0648                 1.0686
 Frc consts  --      5.6736                 5.6918                 5.7192
 IR Inten    --     19.9807                59.1769                39.0891

                     79                     80                     81
                      A                      A                      A
 Frequencies --   3017.4695              3020.2069              3036.0978
 Red. masses --      1.0674                 1.0616                 1.0965
 Frc consts  --      5.7263                 5.7055                 5.9552
 IR Inten    --     97.9992                89.1397                34.2450

                     82                     83                     84
                      A                      A                      A
 Frequencies --   3042.0059              3048.1034              3050.6991
 Red. masses --      1.0894                 1.0971                 1.0926
 Frc consts  --      5.9396                 6.0058                 5.9913
 IR Inten    --     44.4555                31.3947               119.1444

                     85                     86                     87
                      A                      A                      A
 Frequencies --   3052.5344              3057.1214              3063.6612
 Red. masses --      1.0985                 1.0964                 1.0954
 Frc consts  --      6.0308                 6.0372                 6.0578
 IR Inten    --      4.2458                84.8733               121.2777

                     88                     89                     90
                      A                      A                      A
 Frequencies --   3072.2450              3089.7305              3474.0822
 Red. masses --      1.1018                 1.0976                 1.0510
 Frc consts  --      6.1273                 6.1734                 7.4737
 IR Inten    --    223.9853                63.2045                 2.3201

                     91                     92                     93
                      A                      A                      A
 Frequencies --   3476.0867              3551.6710              3555.3343
 Red. masses --      1.0507                 1.0912                 1.0916
 Frc consts  --      7.4799                 8.1097                 8.1299
 IR Inten    --      1.3008                 0.3247                 0.0270

 - Thermochemistry -
 -------------------
 Temperature   298.150 Kelvin.  Pressure   1.00000 Atm.
 Atom     1 has atomic number  7 and mass  14.00307

 Molecular mass:   158.17830 amu.
 Principal axes and moments of inertia in atomic units:
                           1         2         3
     Eigenvalues --   946.849235390.372965859.18630
           X            1.00000  -0.00088  -0.00236
           Y            0.00087   0.99999  -0.00457
           Z            0.00236   0.00457   0.99999
 This molecule is an asymmetric top.
 Rotational symmetry number  1.
 Warning -- assumption of classical behavior for rotation
           may cause significant error
 Rotational temperatures (Kelvin)      0.09148     0.01607     0.01478
 Rotational constants (GHZ):           1.90605     0.33481     0.30802
 Zero-point vibrational energy     815161.0 (Joules/Mol)
                                  194.82815 (Kcal/Mol)
 Warning -- explicit consideration of  19 degrees of freedom as
           vibrations may cause significant error
 Vibrational temperatures:     47.55    67.92    77.79   107.35   142.29
          (Kelvin)            157.06   200.06   207.49   244.92   334.00
                              361.15   380.37   393.35   437.56   500.09
                              524.98   634.47   673.84   771.02  1058.97
                             1068.98  1101.36  1147.68  1199.10  1227.98
                             1264.01  1292.21  1318.51  1372.59  1379.36
                             1423.53  1444.62  1498.51  1505.84  1536.42
                             1542.80  1562.08  1575.20  1617.60  1635.74
                             1653.41  1694.35  1782.25  1789.97  1828.41
                             1858.28  1881.82  1890.59  1912.97  1918.53
                             1925.55  1931.64  1950.01  1978.31  2004.60
                             2011.98  2025.54  2031.49  2061.92  2068.00
                             2132.57  2136.20  2142.30  2150.73  2151.24
                             2165.61  2175.89  2186.08  2198.52  2379.86
                             2383.35  4249.61  4254.21  4319.80  4324.59
                             4330.06  4333.67  4336.44  4341.47  4345.40
                             4368.27  4376.77  4385.54  4389.28  4391.92
                             4398.52  4407.93  4420.28  4445.43  4998.43
                             5001.31  5110.06  5115.33

 Zero-point correction=                           0.310478 (Hartree/Particle)
 Thermal correction to Energy=                    0.325071
 Thermal correction to Enthalpy=                  0.326015
 Thermal correction to Gibbs Free Energy=         0.267667
 Sum of electronic and zero-point Energies=           -465.432225
 Sum of electronic and thermal Energies=              -465.417633
 Sum of electronic and thermal Enthalpies=            -465.416688
 Sum of electronic and thermal Free Energies=         -465.475036

                     E (Thermal)             CV                S
                      KCal/Mol        Cal/Mol-Kelvin    Cal/Mol-Kelvin
 Total                  203.985             52.216            122.804
 Electronic               0.000              0.000              0.000
 Translational            0.889              2.981             41.085
 Rotational               0.889              2.981             31.770
 Vibrational            202.207             46.255             49.949
 Vibration     1          0.594              1.983              5.637
 Vibration     2          0.595              1.979              4.931
 Vibration     3          0.596              1.976              4.663
 Vibration     4          0.599              1.966              4.028
 Vibration     5          0.604              1.950              3.476
 Vibration     6          0.606              1.942              3.284
 Vibration     7          0.615              1.914              2.817
 Vibration     8          0.616              1.909              2.747
 Vibration     9          0.625              1.879              2.433
 Vibration    10          0.653              1.792              1.862
 Vibration    11          0.663              1.761              1.723
 Vibration    12          0.671              1.738              1.633
 Vibration    13          0.676              1.722              1.575
 Vibration    14          0.695              1.666              1.394
 Vibration    15          0.725              1.580              1.177
 Vibration    16          0.738              1.545              1.101
 Vibration    17          0.801              1.381              0.824
 Vibration    18          0.826              1.320              0.742
 Vibration    19          0.891              1.171              0.574

 Optimization completed.
    -- Stationary point found.
 Normal termination of Gaussian 16 at Fri Jul 19 10:07:01 2024.
 Gaussian 16:  ES64L-G16RevA.03 25-Dec-2016

 ----------------------------------------------------------------------
 # TD(NStates=10, Root=1) B3LYP/6-31G** SCRF=(Solvent=water) volume pop
 =NPA density=current Geom=AllCheck Guess=Read
 ----------------------------------------------------------------------

 Structure from the checkpoint file:  "SXJVFQLYZSNZBT-UHFFFAOYSA-N_conf_1_2.chk"
 ----------------------------------
 SXJVFQLYZSNZBT-UHFFFAOYSA-N_conf_1
 ----------------------------------
 Charge =  0 Multiplicity = 1

                         Standard orientation:
 ---------------------------------------------------------------------
 Center     Atomic      Atomic             Coordinates (Angstroms)
 Number     Number       Type             X           Y           Z
 ---------------------------------------------------------------------
      1          7           0        5.275809    0.579275   -0.266881
      2          6           0        3.828648    0.771250   -0.458481
      3          6           0        3.032096   -0.318061    0.261667
      4          6           0        1.514039   -0.152073    0.124884
      5          6           0        0.719505   -1.254058    0.840744
      6          6           0       -0.807556   -1.075448    0.803584
      7          6           0       -1.427543   -1.205707   -0.595464
      8          6           0       -2.968870   -1.142755   -0.632120
      9          6           0       -3.637048    0.240405   -0.756081
     10          6           0       -3.499663    1.223415    0.417227
     11          7           0       -2.221815    1.954364    0.388976
     12          1           0        5.775837    1.323990   -0.749452
     13          1           0        5.556254   -0.277342   -0.743166
     14          1           0        3.562744    1.750725   -0.040400
     15          1           0        3.526404    0.794436   -1.520210
     16          1           0        3.316036   -0.319482    1.322347
     17          1           0        3.327624   -1.299699   -0.137589
     18          1           0        1.250067   -0.134014   -0.940623
     19          1           0        1.215900    0.826186    0.528120
     20          1           0        0.985712   -2.229424    0.406884
     21          1           0        1.044052   -1.292572    1.889934
     22          1           0       -1.262993   -1.834434    1.455373
     23          1           0       -1.069398   -0.096427    1.219215
     24          1           0       -1.111057   -2.170133   -1.018107
     25          1           0       -1.021545   -0.435610   -1.262826
     26          1           0       -3.313958   -1.731723   -1.491970
     27          1           0       -3.371503   -1.654341    0.254344
     28          1           0       -4.709796    0.066947   -0.912067
     29          1           0       -3.282251    0.736957   -1.671277
     30          1           0       -3.554901    0.673933    1.365507
     31          1           0       -4.370045    1.901121    0.401946
     32          1           0       -2.210012    2.556950   -0.432720
     33          1           0       -2.182772    2.586661    1.186327
 ---------------------------------------------------------------------

 SCF Done:  E(RB3LYP) =  -465.742703280     A.U. after    1 cycles

 Excitation energies and oscillator strengths:

 Excited State   1:      Singlet-A      7.2813 eV  170.28 nm  f=0.0240  <S**2>=0.000
      45 -> 46         0.68161
      45 -> 49        -0.15518
 This state for optimization and/or second-order correction.
 Total Energy, E(TD-HF/TD-DFT) =  -465.475121757
 Copying the excited state density for this state as the 1-particle RhoCI density.

 Excited State   2:      Singlet-A      7.4764 eV  165.83 nm  f=0.0154  <S**2>=0.000
      44 -> 47         0.68849
      44 -> 48        -0.13525

 Excited State   3:      Singlet-A      8.2294 eV  150.66 nm  f=0.0040  <S**2>=0.000
      44 -> 46         0.59619
      44 -> 47         0.10007
      44 -> 48         0.34849

 Excited State   4:      Singlet-A      8.2711 eV  149.90 nm  f=0.0263  <S**2>=0.000
      45 -> 47         0.43406
      45 -> 48         0.31458
      45 -> 49        -0.42771
      45 -> 50         0.10725

 Excited State   5:      Singlet-A      8.3494 eV  148.49 nm  f=0.0151  <S**2>=0.000
      45 -> 46         0.11594
      45 -> 47         0.50174
      45 -> 49         0.46806

 Excited State   6:      Singlet-A      8.4044 eV  147.52 nm  f=0.0086  <S**2>=0.000
      44 -> 46        -0.37589
      44 -> 47         0.11190
      44 -> 48         0.55734
      44 -> 51        -0.11247
      44 -> 52         0.13233

 Excited State   7:      Singlet-A      8.4299 eV  147.08 nm  f=0.0279  <S**2>=0.000
      45 -> 47        -0.12447
      45 -> 48         0.48045
      45 -> 49         0.10327
      45 -> 50        -0.43749
      45 -> 53        -0.18986

 Excited State   8:      Singlet-A      8.4777 eV  146.25 nm  f=0.0039  <S**2>=0.000
      45 -> 46         0.11058
      45 -> 47        -0.20449
      45 -> 48         0.38423
      45 -> 49         0.20044
      45 -> 50         0.46766
      45 -> 52        -0.11062
      45 -> 53         0.13594

 Excited State   9:      Singlet-A      8.7129 eV  142.30 nm  f=0.0202  <S**2>=0.000
      44 -> 49         0.42906
      44 -> 50         0.21450
      44 -> 51         0.40297
      44 -> 52         0.27193
      44 -> 58         0.10435

 Excited State  10:      Singlet-A      8.9274 eV  138.88 nm  f=0.0347  <S**2>=0.000
      44 -> 49        -0.30805
      44 -> 50         0.58130
      44 -> 53        -0.21733

 The electronic state is 1-A.
 Alpha  occ. eigenvalues --  -14.30823 -14.30775 -10.19998 -10.19967 -10.17445
 Alpha  occ. eigenvalues --  -10.17262 -10.17248 -10.17194 -10.17066 -10.16791
 Alpha  occ. eigenvalues --  -10.16337  -0.87221  -0.87209  -0.79728  -0.77283
 Alpha  occ. eigenvalues --   -0.73687  -0.69364  -0.64935  -0.61086  -0.57879
 Alpha  occ. eigenvalues --   -0.56657  -0.55099  -0.48023  -0.47356  -0.46683
 Alpha  occ. eigenvalues --   -0.45764  -0.44060  -0.43039  -0.42856  -0.41080
 Alpha  occ. eigenvalues --   -0.39714  -0.38965  -0.37213  -0.36462  -0.35979
 Alpha  occ. eigenvalues --   -0.34108  -0.33423  -0.33004  -0.32153  -0.31681
 Alpha  occ. eigenvalues --   -0.30086  -0.30004  -0.29543  -0.23526  -0.23143
 Alpha virt. eigenvalues --    0.08308   0.09015   0.10229   0.10783   0.11480
 Alpha virt. eigenvalues --    0.12822   0.13621   0.13736   0.14824   0.15853
 Alpha virt. eigenvalues --    0.16135   0.16531   0.17018   0.17903   0.18679

 Mulliken charges:
               1
     1  N   -0.645925
     2  C   -0.052339
     3  C   -0.172014
     4  C   -0.170523
     5  C   -0.181106
     6  C   -0.162085
     7  C   -0.166731
     8  C   -0.177476
     9  C   -0.155796
    10  C   -0.082677
    11  N   -0.055898
    12  H    0.250164
    13  H    0.248197
    14  H    0.098965
    15  H    0.080494
    16  H    0.091793
    17  H    0.090060
    18  H    0.092186
    19  H    0.080230
    20  H    0.088465
    21  H    0.085214
    22  H    0.083180
    23  H    0.055215
    24  H    0.080915
    25  H    0.076092
    26  H    0.083741
    27  H    0.092792
    28  H    0.063134
    29  H    0.076648
    30  H    0.101721
    31  H    0.102358
    32  H    0.015631
    33  H   -0.014620
 Sum of Mulliken charges =   0.00000

 Dipole moment (field-independent basis, Debye):
    X=             -1.2586    Y=             -0.2024    Z=             -1.5293  Tot=              1.9910
 Quadrupole moment (field-independent basis, Debye-Ang):
   XX=            -72.2339   YY=            -75.2689   ZZ=            -75.6922
   XY=             -0.1943   XZ=            -10.8888   YZ=             -0.9087

 Summary of Natural Population Analysis:

                                       Natural Population
                Natural  -----------------------------------------------
    Atom  No    Charge         Core      Valence    Rydberg      Total
 -----------------------------------------------------------------------
      N    1   -0.92901      1.99968     5.91451    0.01481     7.92901
      C    2   -0.25707      1.99936     4.24469    0.01302     6.25707
      C    3   -0.47096      1.99933     4.45999    0.01164     6.47096
      C    4   -0.46303      1.99933     4.45271    0.01099     6.46303
      C    5   -0.45779      1.99934     4.44699    0.01146     6.45779
      C    6   -0.45467      1.99932     4.44436    0.01099     6.45467
      C    7   -0.47079      1.99933     4.46015    0.01131     6.47079
      C    8   -0.46141      1.99933     4.44976    0.01233     6.46141
      C    9   -0.47910      1.99931     4.46610    0.01369     6.47910
      C   10   -0.36102      1.99930     4.34304    0.01868     6.36102
      N   11   -0.38622      1.99935     5.36325    0.02363     7.38622
      H   12    0.38913      0.00000     0.60820    0.00267     0.61087
      H   13    0.38228      0.00000     0.61476    0.00296     0.61772
      H   14    0.22256      0.00000     0.77525    0.00219     0.77744
      H   15    0.20142      0.00000     0.79588    0.00271     0.79858
      H   16    0.23130      0.00000     0.76582    0.00287     0.76870
      H   17    0.22686      0.00000     0.77082    0.00232     0.77314
      H   18    0.22711      0.00000     0.76991    0.00298     0.77289
      H   19    0.22152      0.00000     0.77251    0.00598     0.77848
      H   20    0.22870      0.00000     0.76901    0.00229     0.77130
      H   21    0.23299      0.00000     0.76461    0.00240     0.76701
      H   22    0.23192      0.00000     0.76525    0.00283     0.76808
      H   23    0.19656      0.00000     0.79025    0.01319     0.80344
      H   24    0.22823      0.00000     0.76724    0.00453     0.77177
      H   25    0.21773      0.00000     0.77456    0.00771     0.78227
      H   26    0.23295      0.00000     0.76104    0.00601     0.76705
      H   27    0.23061      0.00000     0.76670    0.00269     0.76939
      H   28    0.21079      0.00000     0.77648    0.01273     0.78921
      H   29    0.22375      0.00000     0.76155    0.01471     0.77625
      H   30    0.22958      0.00000     0.75097    0.01944     0.77042
      H   31    0.24716      0.00000     0.71793    0.03491     0.75284
      H   32    0.19972      0.00000     0.71897    0.08131     0.80028
      H   33    0.17690      0.00000     0.73448    0.08862     0.82310
 =======================================================================
   * Total *   -0.00129     21.99298    67.53773    0.47058    90.00129

 Normal termination of Gaussian 16 at Fri Jul 19 10:21:09 2024.
