 Gaussian 16, Revision A.03,

 -------------------------------------------------------
 # opt=CalcFc B3LYP/6-31G** SCRF=(Solvent=water) scf=xqc
 -------------------------------------------------------

 ----------------------------------
 SXJVFQLYZSNZBT-UHFFFAOYSA-N_conf_4
 ----------------------------------
 Symbolic Z-matrix:
 Charge =  0 Multiplicity = 1

 SCF Done:  E(RB3LYP) =  -465.740724394     A.U. after   11 cycles
 SCF Done:  E(RB3LYP) =  -465.743796351     A.U. after    9 cycles
 SCF Done:  E(RB3LYP) =  -465.743929636     A.U. after    9 cycles
 SCF Done:  E(RB3LYP) =  -465.743932613     A.U. after    7 cycles
 SCF Done:  E(RB3LYP) =  -465.743932886     A.U. after    6 cycles
 SCF Done:  E(RB3LYP) =  -465.743932844     A.U. after    5 cycles
 Optimization completed.
    -- Stationary point found.
 Normal termination of Gaussian 16 at Fri Jul 19 09:53:13 2024.

 ----------------------------------------------------------------------
 # freq B3LYP/6-31G** SCRF=(Solvent=water) volume NMR pop=NPA density=c
 urrent Geom=AllCheck Guess=Read
 ----------------------------------------------------------------------

 Structure from the checkpoint file:  "SXJVFQLYZSNZBT-UHFFFAOYSA-N_conf_4_1.chk"
 ----------------------------------
 SXJVFQLYZSNZBT-UHFFFAOYSA-N_conf_4
 ----------------------------------
 Charge =  0 Multiplicity = 1

 SCF Done:  E(RB3LYP) =  -465.743932844     A.U. after    1 cycles

      1  N    Isotropic =   232.8248   Anisotropy =    24.9390

      2  C    Isotropic =   145.2267   Anisotropy =    20.6246

      3  C    Isotropic =   159.3558   Anisotropy =    10.3114

      4  C    Isotropic =   161.8559   Anisotropy =    23.8247

      5  C    Isotropic =   157.8128   Anisotropy =    29.4915

      6  C    Isotropic =   161.1605   Anisotropy =    19.6868

      7  C    Isotropic =   161.6030   Anisotropy =    19.2612

      8  C    Isotropic =   162.2238   Anisotropy =    21.9197

      9  C    Isotropic =   159.6577   Anisotropy =    22.3621

     10  C    Isotropic =   146.9036   Anisotropy =    23.4560

     11  N    Isotropic =   233.7437   Anisotropy =    32.5390

     12  H    Isotropic =    31.2216   Anisotropy =    11.4211

     13  H    Isotropic =    31.0274   Anisotropy =    15.8354

     14  H    Isotropic =    28.7397   Anisotropy =     7.6014

     15  H    Isotropic =    29.1606   Anisotropy =     8.3244

     16  H    Isotropic =    30.3839   Anisotropy =     6.5948

     17  H    Isotropic =    30.2021   Anisotropy =     8.9742

     18  H    Isotropic =    30.3746   Anisotropy =     7.0354

     19  H    Isotropic =    30.1330   Anisotropy =     4.5938

     20  H    Isotropic =    30.1140   Anisotropy =     6.3510

     21  H    Isotropic =    30.2708   Anisotropy =     6.9802

     22  H    Isotropic =    29.9731   Anisotropy =     7.5121

     23  H    Isotropic =    30.7881   Anisotropy =     5.5928

     24  H    Isotropic =    30.6850   Anisotropy =     5.4633

     25  H    Isotropic =    29.8942   Anisotropy =     7.3670

     26  H    Isotropic =    30.4459   Anisotropy =     7.6965

     27  H    Isotropic =    29.7968   Anisotropy =     5.4642

     28  H    Isotropic =    30.6444   Anisotropy =     6.6975

     29  H    Isotropic =    30.1184   Anisotropy =     4.6117

     30  H    Isotropic =    28.6000   Anisotropy =     8.6473

     31  H    Isotropic =    29.3275   Anisotropy =     6.6666

     32  H    Isotropic =    31.8218   Anisotropy =    12.0866

     33  H    Isotropic =    31.1675   Anisotropy =    15.6541

  Exact polarizability: 157.285  -0.318 139.686  -0.001  -0.340 130.105
 Approx polarizability: 152.134  -0.790 151.094  -1.241   0.001 143.999

                      1                      2                      3
                      A                      A                      A
 Frequencies --     19.2541                24.9968                45.7888
 Red. masses --      3.0700                 3.7437                 3.3127
 Frc consts  --      0.0007                 0.0014                 0.0041
 IR Inten    --      2.0039                 0.1579                 0.0918

                      4                      5                      6
                      A                      A                      A
 Frequencies --     66.9862               100.4963               123.2667
 Red. masses --      2.6392                 2.3443                 2.4111
 Frc consts  --      0.0070                 0.0139                 0.0216
 IR Inten    --      3.0814                 1.7019                 3.9513

                      7                      8                      9
                      A                      A                      A
 Frequencies --    135.5749               153.5735               218.2054
 Red. masses --      2.6681                 2.3660                 1.4438
 Frc consts  --      0.0289                 0.0329                 0.0405
 IR Inten    --      7.6307                 2.2635                37.4338

                     10                     11                     12
                      A                      A                      A
 Frequencies --    239.9789               251.0947               258.5873
 Red. masses --      2.0539                 1.5364                 2.0665
 Frc consts  --      0.0697                 0.0571                 0.0814
 IR Inten    --      1.5244                47.1398                16.2706

                     13                     14                     15
                      A                      A                      A
 Frequencies --    283.5286               309.4343               333.4886
 Red. masses --      1.4515                 1.8563                 1.6531
 Frc consts  --      0.0687                 0.1047                 0.1083
 IR Inten    --      9.4250                24.1515                42.2876

                     16                     17                     18
                      A                      A                      A
 Frequencies --    377.0945               444.0919               501.3773
 Red. masses --      2.7897                 2.4445                 2.1063
 Frc consts  --      0.2337                 0.2840                 0.3120
 IR Inten    --      2.3280                16.4715                 2.7661

                     19                     20                     21
                      A                      A                      A
 Frequencies --    561.3704               730.3233               746.1503
 Red. masses --      2.0794                 1.2411                 1.3660
 Frc consts  --      0.3861                 0.3900                 0.4481
 IR Inten    --      3.6147                 4.1685                 1.3958

                     22                     23                     24
                      A                      A                      A
 Frequencies --    771.8189               811.6761               829.4547
 Red. masses --      1.3903                 1.8934                 1.7045
 Frc consts  --      0.4880                 0.7350                 0.6909
 IR Inten    --     10.9003                 0.5096                42.4449

                     25                     26                     27
                      A                      A                      A
 Frequencies --    864.9945               870.9199               880.9840
 Red. masses --      1.5663                 1.8999                 1.5548
 Frc consts  --      0.6905                 0.8491                 0.7110
 IR Inten    --      7.8564                51.4484                38.2653

                     28                     29                     30
                      A                      A                      A
 Frequencies --    904.5516               925.6037               950.1670
 Red. masses --      1.4947                 1.9453                 1.6604
 Frc consts  --      0.7205                 0.9820                 0.8832
 IR Inten    --    179.8834                17.8782                 2.4972

                     31                     32                     33
                      A                      A                      A
 Frequencies --    989.5789               998.6174              1025.3212
 Red. masses --      1.7614                 1.5391                 2.3035
 Frc consts  --      1.0163                 0.9043                 1.4268
 IR Inten    --     40.4464                16.4889                 1.9052

                     34                     35                     36
                      A                      A                      A
 Frequencies --   1048.8920              1057.8965              1084.1807
 Red. masses --      1.4888                 2.2680                 2.3496
 Frc consts  --      0.9650                 1.4955                 1.6272
 IR Inten    --      7.4044                 2.4251                 3.6898

                     37                     38                     39
                      A                      A                      A
 Frequencies --   1091.2424              1102.3395              1113.8764
 Red. masses --      1.9030                 1.6642                 1.6194
 Frc consts  --      1.3352                 1.1915                 1.1838
 IR Inten    --      1.7558                 3.0503                 9.3003

                     40                     41                     42
                      A                      A                      A
 Frequencies --   1125.0689              1144.2911              1196.4860
 Red. masses --      1.9661                 1.5200                 1.6216
 Frc consts  --      1.4663                 1.1726                 1.3678
 IR Inten    --     11.5882                14.8352                 1.7679

                     43                     44                     45
                      A                      A                      A
 Frequencies --   1206.1435              1233.1416              1267.1755
 Red. masses --      1.2982                 1.3682                 1.3035
 Frc consts  --      1.1127                 1.2259                 1.2332
 IR Inten    --      0.8218                 3.1601                 5.6534

                     46                     47                     48
                      A                      A                      A
 Frequencies --   1282.7900              1303.2297              1322.0265
 Red. masses --      1.3327                 1.2675                 1.2602
 Frc consts  --      1.2921                 1.2684                 1.2977
 IR Inten    --      3.5517                 2.8498                 3.7978

                     49                     50                     51
                      A                      A                      A
 Frequencies --   1322.9104              1336.8631              1347.1119
 Red. masses --      1.1976                 1.2024                 1.1847
 Frc consts  --      1.2349                 1.2661                 1.2667
 IR Inten    --      0.3307                 2.9913                 5.1123

                     52                     53                     54
                      A                      A                      A
 Frequencies --   1352.4367              1354.8536              1360.3220
 Red. masses --      1.1710                 1.1790                 1.1630
 Frc consts  --      1.2619                 1.2751                 1.2679
 IR Inten    --      6.2225                 3.7829                 3.7233

                     55                     56                     57
                      A                      A                      A
 Frequencies --   1387.3295              1402.6091              1408.4836
 Red. masses --      1.3979                 1.5915                 1.5025
 Frc consts  --      1.5852                 1.8447                 1.7561
 IR Inten    --      5.3581                 1.6021                 2.6801

                     58                     59                     60
                      A                      A                      A
 Frequencies --   1413.4342              1430.0757              1435.0725
 Red. masses --      1.5096                 1.4155                 1.4107
 Frc consts  --      1.7769                 1.7056                 1.7117
 IR Inten    --      1.3981                23.1695                17.4371

                     61                     62                     63
                      A                      A                      A
 Frequencies --   1483.1741              1485.3649              1487.9506
 Red. masses --      1.0796                 1.0907                 1.0864
 Frc consts  --      1.3993                 1.4178                 1.4171
 IR Inten    --      0.2712                 4.6309                 0.2585

                     64                     65                     66
                      A                      A                      A
 Frequencies --   1493.4606              1506.5518              1507.9971
 Red. masses --      1.0879                 1.0931                 1.0989
 Frc consts  --      1.4297                 1.4617                 1.4723
 IR Inten    --      0.1418                 8.9602                 1.9734

                     67                     68                     69
                      A                      A                      A
 Frequencies --   1510.3493              1515.2113              1519.8332
 Red. masses --      1.0957                 1.0879                 1.0884
 Frc consts  --      1.4726                 1.4715                 1.4813
 IR Inten    --      4.3583                 0.9267                 3.1495

                     70                     71                     72
                      A                      A                      A
 Frequencies --   1654.5045              1661.9514              2952.8902
 Red. masses --      1.0875                 1.0853                 1.0727
 Frc consts  --      1.7539                 1.7662                 5.5111
 IR Inten    --     35.2611                45.9047               118.0216

                     73                     74                     75
                      A                      A                      A
 Frequencies --   2959.2043              3005.5653              3013.6099
 Red. masses --      1.0720                 1.0641                 1.0648
 Frc consts  --      5.5311                 5.6634                 5.6975
 IR Inten    --    136.4087                 2.0630                89.2833

                     76                     77                     78
                      A                      A                      A
 Frequencies --   3015.8341              3018.5945              3022.0892
 Red. masses --      1.0614                 1.0652                 1.0636
 Frc consts  --      5.6877                 5.7188                 5.7230
 IR Inten    --     39.3493                22.2806               106.2276

                     79                     80                     81
                      A                      A                      A
 Frequencies --   3023.6192              3024.6809              3041.4116
 Red. masses --      1.0627                 1.0689                 1.0922
 Frc consts  --      5.7241                 5.7619                 5.9528
 IR Inten    --     19.8184                43.0966                39.6204

                     82                     83                     84
                      A                      A                      A
 Frequencies --   3047.6784              3050.9000              3055.1545
 Red. masses --      1.0952                 1.0928                 1.0956
 Frc consts  --      5.9936                 5.9932                 6.0249
 IR Inten    --     22.8689                15.3746                30.4617

                     85                     86                     87
                      A                      A                      A
 Frequencies --   3060.0252              3064.8511              3069.8422
 Red. masses --      1.0887                 1.1027                 1.0994
 Frc consts  --      6.0065                 6.1027                 6.1044
 IR Inten    --     88.0414                67.4955               205.4393

                     88                     89                     90
                      A                      A                      A
 Frequencies --   3075.8782              3077.1139              3474.7646
 Red. masses --      1.1003                 1.1000                 1.0510
 Frc consts  --      6.1335                 6.1366                 7.4762
 IR Inten    --     63.8320               211.4541                 1.6374

                     91                     92                     93
                      A                      A                      A
 Frequencies --   3483.8731              3553.8543              3558.4966
 Red. masses --      1.0511                 1.0913                 1.0911
 Frc consts  --      7.5169                 8.1205                 8.1401
 IR Inten    --      1.5170                 0.1222                 0.0694

 - Thermochemistry -
 -------------------
 Temperature   298.150 Kelvin.  Pressure   1.00000 Atm.
 Atom     1 has atomic number  7 and mass  14.00307

 Molecular mass:   158.17830 amu.
 Principal axes and moments of inertia in atomic units:
                           1         2         3
     Eigenvalues --   610.649246500.759226735.90405
           X            0.99999   0.00254   0.00402
           Y           -0.00245   0.99972  -0.02338
           Z           -0.00408   0.02337   0.99972
 This molecule is an asymmetric top.
 Rotational symmetry number  1.
 Warning -- assumption of classical behavior for rotation
           may cause significant error
 Rotational temperatures (Kelvin)      0.14184     0.01332     0.01286
 Rotational constants (GHZ):           2.95545     0.27762     0.26793
 Zero-point vibrational energy     815583.5 (Joules/Mol)
                                  194.92913 (Kcal/Mol)
 Warning -- explicit consideration of  19 degrees of freedom as
           vibrations may cause significant error
 Vibrational temperatures:     27.70    35.96    65.88    96.38   144.59
          (Kelvin)            177.35   195.06   220.96   313.95   345.28
                              361.27   372.05   407.93   445.21   479.82
                              542.55   638.95   721.37   807.69  1050.77
                             1073.54  1110.48  1167.82  1193.40  1244.53
                             1253.06  1267.54  1301.45  1331.74  1367.08
                             1423.78  1436.79  1475.21  1509.12  1522.08
                             1559.89  1570.05  1586.02  1602.62  1618.72
                             1646.38  1721.48  1735.37  1774.22  1823.18
                             1845.65  1875.06  1902.10  1903.37  1923.45
                             1938.19  1945.85  1949.33  1957.20  1996.06
                             2018.04  2026.49  2033.62  2057.56  2064.75
                             2133.96  2137.11  2140.83  2148.76  2167.59
                             2169.67  2173.06  2180.05  2186.70  2380.46
                             2391.18  4248.55  4257.63  4324.34  4335.91
                             4339.11  4343.08  4348.11  4350.31  4351.84
                             4375.91  4384.93  4389.56  4395.69  4402.69
                             4409.64  4416.82  4425.50  4427.28  4999.41
                             5012.52  5113.20  5119.88

 Zero-point correction=                           0.310639 (Hartree/Particle)
 Thermal correction to Energy=                    0.325174
 Thermal correction to Enthalpy=                  0.326119
 Thermal correction to Gibbs Free Energy=         0.266938
 Sum of electronic and zero-point Energies=           -465.433293
 Sum of electronic and thermal Energies=              -465.418758
 Sum of electronic and thermal Enthalpies=            -465.417814
 Sum of electronic and thermal Free Energies=         -465.476994

                     E (Thermal)             CV                S
                      KCal/Mol        Cal/Mol-Kelvin    Cal/Mol-Kelvin
 Total                  204.050             52.087            124.555
 Electronic               0.000              0.000              0.000
 Translational            0.889              2.981             41.085
 Rotational               0.889              2.981             31.659
 Vibrational            202.273             46.125             51.812
 Vibration     1          0.593              1.986              6.710
 Vibration     2          0.593              1.985              6.191
 Vibration     3          0.595              1.979              4.991
 Vibration     4          0.598              1.970              4.240
 Vibration     5          0.604              1.949              3.445
 Vibration     6          0.610              1.930              3.049
 Vibration     7          0.613              1.918              2.865
 Vibration     8          0.619              1.899              2.627
 Vibration     9          0.646              1.813              1.974
 Vibration    10          0.657              1.779              1.803
 Vibration    11          0.663              1.761              1.723
 Vibration    12          0.667              1.748              1.671
 Vibration    13          0.682              1.704              1.512
 Vibration    14          0.699              1.656              1.365
 Vibration    15          0.715              1.609              1.243
 Vibration    16          0.748              1.519              1.051
 Vibration    17          0.804              1.374              0.814
 Vibration    18          0.857              1.247              0.655
 Vibration    19          0.917              1.115              0.521

 Optimization completed.
    -- Stationary point found.
 Normal termination of Gaussian 16 at Fri Jul 19 10:05:26 2024.
 Gaussian 16:  ES64L-G16RevA.03 25-Dec-2016

 ----------------------------------------------------------------------
 # TD(NStates=10, Root=1) B3LYP/6-31G** SCRF=(Solvent=water) volume pop
 =NPA density=current Geom=AllCheck Guess=Read
 ----------------------------------------------------------------------

 Structure from the checkpoint file:  "SXJVFQLYZSNZBT-UHFFFAOYSA-N_conf_4_2.chk"
 ----------------------------------
 SXJVFQLYZSNZBT-UHFFFAOYSA-N_conf_4
 ----------------------------------
 Charge =  0 Multiplicity = 1

                         Standard orientation:
 ---------------------------------------------------------------------
 Center     Atomic      Atomic             Coordinates (Angstroms)
 Number     Number       Type             X           Y           Z
 ---------------------------------------------------------------------
      1          7           0       -4.003103    1.495995    0.371944
      2          6           0       -4.463510    0.352358   -0.435771
      3          6           0       -3.770391   -0.966030   -0.069110
      4          6           0       -2.250797   -1.022430   -0.335326
      5          6           0       -1.372018   -0.532614    0.828639
      6          6           0        0.141155   -0.632030    0.571587
      7          6           0        0.673478    0.346153   -0.487121
      8          6           0        2.183831    0.238584   -0.756435
      9          6           0        3.077732    0.671250    0.413581
     10          6           0        4.578072    0.624897    0.104051
     11          7           0        5.027981   -0.746429   -0.189086
     12          1           0       -3.078013    1.776428    0.052272
     13          1           0       -4.599665    2.296633    0.169975
     14          1           0       -4.347179    0.517843   -1.521369
     15          1           0       -5.539066    0.237752   -0.255279
     16          1           0       -3.968464   -1.195049    0.986643
     17          1           0       -4.261468   -1.753833   -0.654500
     18          1           0       -1.967069   -2.061059   -0.552459
     19          1           0       -2.027128   -0.457037   -1.250315
     20          1           0       -1.628078    0.500808    1.092467
     21          1           0       -1.618825   -1.133112    1.714862
     22          1           0        0.664323   -0.459433    1.520245
     23          1           0        0.390936   -1.660121    0.270029
     24          1           0        0.430609    1.374136   -0.179452
     25          1           0        0.142983    0.180605   -1.433090
     26          1           0        2.430829    0.861291   -1.627693
     27          1           0        2.434958   -0.790726   -1.039219
     28          1           0        2.819956    1.697534    0.709202
     29          1           0        2.882841    0.044306    1.294582
     30          1           0        5.125340    1.091368    0.940825
     31          1           0        4.783912    1.239126   -0.782406
     32          1           0        4.944624   -1.304599    0.659864
     33          1           0        6.024190   -0.730649   -0.399758
 ---------------------------------------------------------------------

 SCF Done:  E(RB3LYP) =  -465.743932844     A.U. after    1 cycles

 Excitation energies and oscillator strengths:

 Excited State   1:      Singlet-A      7.2717 eV  170.50 nm  f=0.0166  <S**2>=0.000
      44 -> 46         0.68853
 This state for optimization and/or second-order correction.
 Total Energy, E(TD-HF/TD-DFT) =  -465.476701207
 Copying the excited state density for this state as the 1-particle RhoCI density.

 Excited State   2:      Singlet-A      7.3899 eV  167.78 nm  f=0.0146  <S**2>=0.000
      45 -> 47         0.68262
      45 -> 48        -0.13320

 Excited State   3:      Singlet-A      8.0703 eV  153.63 nm  f=0.0006  <S**2>=0.000
      45 -> 46         0.68660
      45 -> 48         0.12543

 Excited State   4:      Singlet-A      8.3063 eV  149.27 nm  f=0.0092  <S**2>=0.000
      44 -> 47         0.29272
      44 -> 48         0.55621
      44 -> 49        -0.12824
      44 -> 50        -0.17758
      44 -> 51         0.16550

 Excited State   5:      Singlet-A      8.4648 eV  146.47 nm  f=0.0007  <S**2>=0.000
      44 -> 47         0.63836
      44 -> 48        -0.22297
      44 -> 50         0.10486
      44 -> 51        -0.11147

 Excited State   6:      Singlet-A      8.4906 eV  146.02 nm  f=0.0027  <S**2>=0.000
      45 -> 46        -0.14088
      45 -> 47         0.13753
      45 -> 48         0.59515
      45 -> 50         0.12476
      45 -> 51        -0.26913

 Excited State   7:      Singlet-A      8.5506 eV  145.00 nm  f=0.0101  <S**2>=0.000
      45 -> 48         0.16715
      45 -> 49         0.56208
      45 -> 50        -0.14993
      45 -> 51         0.14845
      45 -> 52        -0.28729

 Excited State   8:      Singlet-A      8.6757 eV  142.91 nm  f=0.0037  <S**2>=0.000
      44 -> 46         0.12507
      44 -> 48         0.22194
      44 -> 49         0.53031
      44 -> 50         0.32831
      44 -> 52         0.15259

 Excited State   9:      Singlet-A      8.7739 eV  141.31 nm  f=0.0436  <S**2>=0.000
      44 -> 49        -0.37303
      44 -> 50         0.53444
      44 -> 53         0.20389

 Excited State  10:      Singlet-A      8.8236 eV  140.51 nm  f=0.0759  <S**2>=0.000
      45 -> 50         0.54093
      45 -> 51         0.35490
      45 -> 53        -0.14922
      45 -> 54        -0.19070

 The electronic state is 1-A.
 Alpha  occ. eigenvalues --  -14.30824 -14.30759 -10.20066 -10.20026 -10.17371
 Alpha  occ. eigenvalues --  -10.17349 -10.17298 -10.17209 -10.17196 -10.17177
 Alpha  occ. eigenvalues --  -10.17035  -0.87252  -0.87225  -0.80005  -0.77263
 Alpha  occ. eigenvalues --   -0.73735  -0.69703  -0.65355  -0.61052  -0.58231
 Alpha  occ. eigenvalues --   -0.56344  -0.55101  -0.48736  -0.48182  -0.45970
 Alpha  occ. eigenvalues --   -0.45022  -0.44218  -0.43932  -0.43183  -0.40442
 Alpha  occ. eigenvalues --   -0.39717  -0.39171  -0.37544  -0.36985  -0.36376
 Alpha  occ. eigenvalues --   -0.34221  -0.33646  -0.32726  -0.32201  -0.31677
 Alpha  occ. eigenvalues --   -0.30797  -0.30110  -0.29654  -0.23564  -0.23327
 Alpha virt. eigenvalues --    0.07787   0.08716   0.10362   0.11061   0.11505
 Alpha virt. eigenvalues --    0.12797   0.13387   0.14091   0.14782   0.15406
 Alpha virt. eigenvalues --    0.16203   0.16678   0.17465   0.17646   0.18360

 Mulliken charges:
               1
     1  N   -0.063053
     2  C   -0.103643
     3  C   -0.175000
     4  C   -0.138205
     5  C   -0.145510
     6  C   -0.172529
     7  C   -0.166321
     8  C   -0.167541
     9  C   -0.176139
    10  C   -0.055936
    11  N   -0.633878
    12  H   -0.011470
    13  H    0.058081
    14  H    0.142315
    15  H    0.092605
    16  H    0.113033
    17  H    0.088696
    18  H    0.057595
    19  H    0.038944
    20  H    0.018410
    21  H    0.063397
    22  H    0.084077
    23  H    0.081380
    24  H    0.063674
    25  H    0.079897
    26  H    0.079232
    27  H    0.091298
    28  H    0.089166
    29  H    0.093679
    30  H    0.078153
    31  H    0.097540
    32  H    0.247648
    33  H    0.250407
 Sum of Mulliken charges =  -0.00000

 Dipole moment (field-independent basis, Debye):
    X=             -1.7525    Y=              0.4180    Z=              1.0250  Tot=              2.0728
 Quadrupole moment (field-independent basis, Debye-Ang):
   XX=            -49.6533   YY=            -75.9436   ZZ=            -74.4129
   XY=              0.4266   XZ=              6.8910   YZ=             -1.8836

 Summary of Natural Population Analysis:

                                       Natural Population
                Natural  -----------------------------------------------
    Atom  No    Charge         Core      Valence    Rydberg      Total
 -----------------------------------------------------------------------
      N    1   -0.37544      1.99932     5.35244    0.02368     7.37544
      C    2   -0.35640      1.99928     4.33976    0.01736     6.35640
      C    3   -0.47074      1.99932     4.45966    0.01177     6.47074
      C    4   -0.47832      1.99933     4.46485    0.01414     6.47832
      C    5   -0.46367      1.99932     4.45140    0.01295     6.46367
      C    6   -0.46081      1.99933     4.45014    0.01134     6.46081
      C    7   -0.46282      1.99933     4.45033    0.01316     6.46282
      C    8   -0.46290      1.99933     4.45129    0.01227     6.46290
      C    9   -0.47514      1.99933     4.46461    0.01121     6.47514
      C   10   -0.25808      1.99936     4.24513    0.01359     6.25808
      N   11   -0.93257      1.99968     5.91805    0.01485     7.93257
      H   12    0.17922      0.00000     0.73815    0.08264     0.82078
      H   13    0.22932      0.00000     0.70069    0.06998     0.77068
      H   14    0.27176      0.00000     0.70480    0.02343     0.72824
      H   15    0.21803      0.00000     0.76058    0.02139     0.78197
      H   16    0.24578      0.00000     0.75048    0.00375     0.75422
      H   17    0.23065      0.00000     0.76102    0.00833     0.76935
      H   18    0.21378      0.00000     0.77587    0.01035     0.78622
      H   19    0.19501      0.00000     0.78340    0.02159     0.80499
      H   20    0.17253      0.00000     0.80531    0.02217     0.82747
      H   21    0.21991      0.00000     0.77464    0.00545     0.78009
      H   22    0.23010      0.00000     0.76762    0.00228     0.76990
      H   23    0.22458      0.00000     0.77284    0.00259     0.77542
      H   24    0.21199      0.00000     0.77839    0.00963     0.78801
      H   25    0.22715      0.00000     0.76886    0.00399     0.77285
      H   26    0.22985      0.00000     0.76804    0.00212     0.77015
      H   27    0.23354      0.00000     0.76369    0.00277     0.76646
      H   28    0.23497      0.00000     0.76302    0.00202     0.76503
      H   29    0.22681      0.00000     0.77109    0.00210     0.77319
      H   30    0.20664      0.00000     0.79081    0.00255     0.79336
      H   31    0.22156      0.00000     0.77624    0.00220     0.77844
      H   32    0.38202      0.00000     0.61496    0.00302     0.61798
      H   33    0.38963      0.00000     0.60776    0.00261     0.61037
 =======================================================================
   * Total *   -0.00207     21.99293    67.54586    0.46328    90.00207

 Normal termination of Gaussian 16 at Fri Jul 19 10:20:03 2024.
