 Gaussian 16, Revision A.03,

 -------------------------------------------------------
 # opt=CalcFc B3LYP/6-31G** SCRF=(Solvent=water) scf=xqc
 -------------------------------------------------------

 ----------------------------------
 SXJVFQLYZSNZBT-UHFFFAOYSA-N_conf_0
 ----------------------------------
 Symbolic Z-matrix:
 Charge =  0 Multiplicity = 1

 SCF Done:  E(RB3LYP) =  -465.744370900     A.U. after   11 cycles
 SCF Done:  E(RB3LYP) =  -465.747302129     A.U. after    9 cycles
 SCF Done:  E(RB3LYP) =  -465.747423407     A.U. after    9 cycles
 SCF Done:  E(RB3LYP) =  -465.747425812     A.U. after    7 cycles
 SCF Done:  E(RB3LYP) =  -465.747426156     A.U. after    7 cycles
 SCF Done:  E(RB3LYP) =  -465.747426210     A.U. after    5 cycles
 Optimization completed.
    -- Stationary point found.
 Normal termination of Gaussian 16 at Fri Jul 19 09:51:35 2024.

 ----------------------------------------------------------------------
 # freq B3LYP/6-31G** SCRF=(Solvent=water) volume NMR pop=NPA density=c
 urrent Geom=AllCheck Guess=Read
 ----------------------------------------------------------------------

 Structure from the checkpoint file:  "SXJVFQLYZSNZBT-UHFFFAOYSA-N_conf_0_1.chk"
 ----------------------------------
 SXJVFQLYZSNZBT-UHFFFAOYSA-N_conf_0
 ----------------------------------
 Charge =  0 Multiplicity = 1

 SCF Done:  E(RB3LYP) =  -465.747426210     A.U. after    1 cycles

      1  N    Isotropic =   234.0930   Anisotropy =    32.6788

      2  C    Isotropic =   147.4675   Anisotropy =    24.7623

      3  C    Isotropic =   159.4608   Anisotropy =    19.6535

      4  C    Isotropic =   163.2335   Anisotropy =    18.8347

      5  C    Isotropic =   161.6045   Anisotropy =    18.3851

      6  C    Isotropic =   161.5729   Anisotropy =    18.4867

      7  C    Isotropic =   159.2049   Anisotropy =    23.7358

      8  C    Isotropic =   164.1422   Anisotropy =    19.0897

      9  C    Isotropic =   157.0091   Anisotropy =    23.2014

     10  C    Isotropic =   147.7255   Anisotropy =    23.4954

     11  N    Isotropic =   235.0349   Anisotropy =    26.9263

     12  H    Isotropic =    31.1459   Anisotropy =    15.5555

     13  H    Isotropic =    31.8078   Anisotropy =    12.5635

     14  H    Isotropic =    28.6029   Anisotropy =     8.5395

     15  H    Isotropic =    29.3793   Anisotropy =     6.4512

     16  H    Isotropic =    30.0724   Anisotropy =     6.0133

     17  H    Isotropic =    30.7075   Anisotropy =     5.8885

     18  H    Isotropic =    29.4806   Anisotropy =     7.5169

     19  H    Isotropic =    30.7337   Anisotropy =     6.3160

     20  H    Isotropic =    30.7453   Anisotropy =     5.6063

     21  H    Isotropic =    29.8895   Anisotropy =     7.8217

     22  H    Isotropic =    30.6698   Anisotropy =     5.6494

     23  H    Isotropic =    29.9574   Anisotropy =     7.3966

     24  H    Isotropic =    30.2705   Anisotropy =     7.0137

     25  H    Isotropic =    30.5187   Anisotropy =     5.6358

     26  H    Isotropic =    30.9688   Anisotropy =     5.6621

     27  H    Isotropic =    29.8876   Anisotropy =     6.6714

     28  H    Isotropic =    30.4374   Anisotropy =     6.7102

     29  H    Isotropic =    30.3612   Anisotropy =     6.5211

     30  H    Isotropic =    28.8355   Anisotropy =     7.5003

     31  H    Isotropic =    29.1682   Anisotropy =     8.0880

     32  H    Isotropic =    31.2502   Anisotropy =    11.3343

     33  H    Isotropic =    31.0802   Anisotropy =    15.7531

  Exact polarizability: 158.319   1.416 137.163   0.329  -0.924 132.006
 Approx polarizability: 151.569   1.838 148.345   0.612  -1.785 147.240

                      1                      2                      3
                      A                      A                      A
 Frequencies --     26.4662                39.9149                46.6794
 Red. masses --      2.8045                 2.9026                 3.3578
 Frc consts  --      0.0012                 0.0027                 0.0043
 IR Inten    --      1.6245                 1.2928                 1.7258

                      4                      5                      6
                      A                      A                      A
 Frequencies --     58.3853                92.4739               113.5492
 Red. masses --      2.8064                 3.0633                 2.3391
 Frc consts  --      0.0056                 0.0154                 0.0178
 IR Inten    --      1.4608                 2.1156                 0.1078

                      7                      8                      9
                      A                      A                      A
 Frequencies --    143.8227               155.3241               189.4725
 Red. masses --      2.3762                 2.5157                 1.7025
 Frc consts  --      0.0290                 0.0358                 0.0360
 IR Inten    --      8.0793                 6.1648                 8.8526

                     10                     11                     12
                      A                      A                      A
 Frequencies --    218.0529               247.1631               250.9005
 Red. masses --      1.5764                 1.8621                 1.3056
 Frc consts  --      0.0442                 0.0670                 0.0484
 IR Inten    --     54.5948                 1.3416                50.5303

                     13                     14                     15
                      A                      A                      A
 Frequencies --    271.1024               284.4259               337.5425
 Red. masses --      1.8799                 1.5748                 2.3266
 Frc consts  --      0.0814                 0.0751                 0.1562
 IR Inten    --      6.7529                23.4627                16.8346

                     16                     17                     18
                      A                      A                      A
 Frequencies --    392.7455               473.1175               490.8433
 Red. masses --      2.7864                 2.4834                 2.3986
 Frc consts  --      0.2532                 0.3275                 0.3405
 IR Inten    --      4.0277                10.2301                 4.9045

                     19                     20                     21
                      A                      A                      A
 Frequencies --    554.6144               727.7239               744.1295
 Red. masses --      2.3378                 1.1726                 1.2255
 Frc consts  --      0.4237                 0.3659                 0.3998
 IR Inten    --      4.3962                 8.1092                 2.8721

                     22                     23                     24
                      A                      A                      A
 Frequencies --    766.6058               810.2402               837.0799
 Red. masses --      1.2927                 1.4791                 1.6440
 Frc consts  --      0.4476                 0.5721                 0.6787
 IR Inten    --      2.1535                 2.0055                15.1761

                     25                     26                     27
                      A                      A                      A
 Frequencies --    857.0237               871.0787               902.3358
 Red. masses --      1.5217                 1.9256                 1.4514
 Frc consts  --      0.6585                 0.8609                 0.6963
 IR Inten    --     87.9017               104.4329                53.3112

                     28                     29                     30
                      A                      A                      A
 Frequencies --    914.7987               930.8140               947.1876
 Red. masses --      1.8374                 2.1549                 1.6636
 Frc consts  --      0.9060                 1.1000                 0.8794
 IR Inten    --     46.9857                29.0698                48.1110

                     31                     32                     33
                      A                      A                      A
 Frequencies --    973.9014              1014.7197              1026.5146
 Red. masses --      1.8038                 1.7086                 1.5687
 Frc consts  --      1.0080                 1.0365                 0.9739
 IR Inten    --      2.8755                 7.9898                10.5593

                     34                     35                     36
                      A                      A                      A
 Frequencies --   1041.1552              1062.9167              1076.7188
 Red. masses --      1.9452                 2.3523                 1.4771
 Frc consts  --      1.2424                 1.5658                 1.0089
 IR Inten    --      6.3768                 1.5678                 3.5675

                     37                     38                     39
                      A                      A                      A
 Frequencies --   1090.4841              1100.7668              1108.2908
 Red. masses --      1.9322                 2.2730                 2.1820
 Frc consts  --      1.3538                 1.6227                 1.5791
 IR Inten    --      0.9115                 3.8338                11.3385

                     40                     41                     42
                      A                      A                      A
 Frequencies --   1118.2244              1169.9622              1183.3997
 Red. masses --      1.6352                 1.4692                 1.5684
 Frc consts  --      1.2047                 1.1849                 1.2941
 IR Inten    --      6.1823                11.7357                 5.3215

                     43                     44                     45
                      A                      A                      A
 Frequencies --   1215.4572              1234.4963              1263.1848
 Red. masses --      1.5478                 1.3453                 1.3429
 Frc consts  --      1.3472                 1.2080                 1.2625
 IR Inten    --      2.4881                 7.1160                 6.2342

                     46                     47                     48
                      A                      A                      A
 Frequencies --   1295.5478              1303.7056              1311.5867
 Red. masses --      1.3541                 1.2846                 1.2825
 Frc consts  --      1.3391                 1.2865                 1.2999
 IR Inten    --      2.9478                 0.8462                 0.4188

                     49                     50                     51
                      A                      A                      A
 Frequencies --   1331.0741              1334.5696              1337.8823
 Red. masses --      1.1684                 1.1731                 1.1527
 Frc consts  --      1.2197                 1.2310                 1.2157
 IR Inten    --      1.0061                 5.1017                 0.7340

                     52                     53                     54
                      A                      A                      A
 Frequencies --   1350.8980              1354.4592              1360.2005
 Red. masses --      1.1651                 1.1202                 1.1942
 Frc consts  --      1.2527                 1.2109                 1.3017
 IR Inten    --      8.7292                 2.8971                 1.4144

                     55                     56                     57
                      A                      A                      A
 Frequencies --   1386.2959              1406.7976              1413.3548
 Red. masses --      1.4156                 1.5907                 1.5513
 Frc consts  --      1.6029                 1.8548                 1.8258
 IR Inten    --      0.2281                 0.3072                 3.8791

                     58                     59                     60
                      A                      A                      A
 Frequencies --   1413.8959              1429.2719              1431.4336
 Red. masses --      1.5180                 1.4095                 1.4346
 Frc consts  --      1.7880                 1.6965                 1.7319
 IR Inten    --      4.9157                22.5705                22.1722

                     61                     62                     63
                      A                      A                      A
 Frequencies --   1481.5485              1483.8120              1487.8869
 Red. masses --      1.0835                 1.0804                 1.0865
 Frc consts  --      1.4012                 1.4015                 1.4172
 IR Inten    --      2.3527                 0.8439                 0.5458

                     64                     65                     66
                      A                      A                      A
 Frequencies --   1492.8418              1507.2681              1509.0331
 Red. masses --      1.0919                 1.0943                 1.0970
 Frc consts  --      1.4337                 1.4648                 1.4718
 IR Inten    --      1.5376                 5.0685                 3.3074

                     67                     68                     69
                      A                      A                      A
 Frequencies --   1512.6553              1515.7273              1518.4928
 Red. masses --      1.0995                 1.0870                 1.0886
 Frc consts  --      1.4822                 1.4713                 1.4789
 IR Inten    --      2.6778                 2.1954                 2.4606

                     70                     71                     72
                      A                      A                      A
 Frequencies --   1654.0525              1658.9518              2951.9074
 Red. masses --      1.0876                 1.0865                 1.0728
 Frc consts  --      1.7532                 1.7618                 5.5077
 IR Inten    --     34.4066                44.4563               121.2061

                     73                     74                     75
                      A                      A                      A
 Frequencies --   2960.6321              3006.3951              3007.4856
 Red. masses --      1.0721                 1.0625                 1.0676
 Frc consts  --      5.5368                 5.6582                 5.6896
 IR Inten    --    138.2637                 6.9849                 3.0843

                     76                     77                     78
                      A                      A                      A
 Frequencies --   3010.2450              3012.3056              3013.7827
 Red. masses --      1.0677                 1.0649                 1.0650
 Frc consts  --      5.7002                 5.6930                 5.6994
 IR Inten    --      1.6022                65.3404                21.4797

                     79                     80                     81
                      A                      A                      A
 Frequencies --   3018.2047              3021.8598              3042.1549
 Red. masses --      1.0639                 1.0614                 1.0970
 Frc consts  --      5.7099                 5.7107                 5.9817
 IR Inten    --    155.6441                87.3908                27.6862

                     82                     83                     84
                      A                      A                      A
 Frequencies --   3046.1667              3049.7776              3055.8267
 Red. masses --      1.0895                 1.0939                 1.1005
 Frc consts  --      5.9565                 5.9949                 6.0549
 IR Inten    --     66.8155                 8.7185                 2.1250

                     85                     86                     87
                      A                      A                      A
 Frequencies --   3061.2476              3063.8194              3070.3585
 Red. masses --      1.0896                 1.0922                 1.1009
 Frc consts  --      6.0163                 6.0406                 6.1149
 IR Inten    --     89.6311                81.9251               173.2284

                     88                     89                     90
                      A                      A                      A
 Frequencies --   3075.1158              3084.2509              3475.7620
 Red. masses --      1.1024                 1.0961                 1.0510
 Frc consts  --      6.1422                 6.1431                 7.4805
 IR Inten    --    156.0494               116.6370                 1.4867

                     91                     92                     93
                      A                      A                      A
 Frequencies --   3485.7332              3554.9943              3560.1032
 Red. masses --      1.0509                 1.0913                 1.0912
 Frc consts  --      7.5235                 8.1259                 8.1487
 IR Inten    --      1.0897                 0.0711                 0.0287

 - Thermochemistry -
 -------------------
 Temperature   298.150 Kelvin.  Pressure   1.00000 Atm.
 Atom     1 has atomic number  7 and mass  14.00307

 Molecular mass:   158.17830 amu.
 Principal axes and moments of inertia in atomic units:
                           1         2         3
     Eigenvalues --   593.639017141.769867540.44152
           X            1.00000  -0.00079  -0.00210
           Y            0.00082   0.99991   0.01349
           Z            0.00209  -0.01349   0.99991
 This molecule is an asymmetric top.
 Rotational symmetry number  1.
 Warning -- assumption of classical behavior for rotation
           may cause significant error
 Rotational temperatures (Kelvin)      0.14590     0.01213     0.01149
 Rotational constants (GHZ):           3.04013     0.25270     0.23934
 Zero-point vibrational energy     815178.4 (Joules/Mol)
                                  194.83230 (Kcal/Mol)
 Warning -- explicit consideration of  19 degrees of freedom as
           vibrations may cause significant error
 Vibrational temperatures:     38.08    57.43    67.16    84.00   133.05
          (Kelvin)            163.37   206.93   223.48   272.61   313.73
                              355.61   360.99   390.06   409.23   485.65
                              565.07   680.71   706.21   797.97  1047.03
                             1070.64  1102.97  1165.75  1204.37  1233.07
                             1253.29  1298.26  1316.19  1339.23  1362.79
                             1401.23  1459.96  1476.93  1497.99  1529.30
                             1549.16  1568.96  1583.76  1594.58  1608.88
                             1683.31  1702.65  1748.77  1776.16  1817.44
                             1864.00  1875.74  1887.08  1915.12  1920.15
                             1924.91  1943.64  1948.76  1957.03  1994.57
                             2024.07  2033.50  2034.28  2056.40  2059.51
                             2131.62  2134.87  2140.74  2147.87  2168.62
                             2171.16  2176.37  2180.79  2184.77  2379.81
                             2386.86  4247.14  4259.69  4325.53  4327.10
                             4331.07  4334.04  4336.16  4342.52  4347.78
                             4376.98  4382.75  4387.95  4396.65  4404.45
                             4408.15  4417.56  4424.41  4437.55  5000.85
                             5015.19  5114.84  5122.19

 Zero-point correction=                           0.310485 (Hartree/Particle)
 Thermal correction to Energy=                    0.325110
 Thermal correction to Enthalpy=                  0.326054
 Thermal correction to Gibbs Free Energy=         0.267046
 Sum of electronic and zero-point Energies=           -465.436941
 Sum of electronic and thermal Energies=              -465.422317
 Sum of electronic and thermal Enthalpies=            -465.421372
 Sum of electronic and thermal Free Energies=         -465.480380

                     E (Thermal)             CV                S
                      KCal/Mol        Cal/Mol-Kelvin    Cal/Mol-Kelvin
 Total                  204.009             52.165            124.192
 Electronic               0.000              0.000              0.000
 Translational            0.889              2.981             41.085
 Rotational               0.889              2.981             31.836
 Vibrational            202.232             46.203             51.270
 Vibration     1          0.593              1.985              6.078
 Vibration     2          0.594              1.981              5.263
 Vibration     3          0.595              1.979              4.953
 Vibration     4          0.596              1.974              4.511
 Vibration     5          0.602              1.955              3.607
 Vibration     6          0.607              1.938              3.207
 Vibration     7          0.616              1.909              2.752
 Vibration     8          0.620              1.897              2.606
 Vibration     9          0.633              1.854              2.233
 Vibration    10          0.646              1.814              1.975
 Vibration    11          0.661              1.767              1.751
 Vibration    12          0.663              1.761              1.724
 Vibration    13          0.675              1.726              1.589
 Vibration    14          0.683              1.703              1.507
 Vibration    15          0.718              1.601              1.224
 Vibration    16          0.760              1.486              0.990
 Vibration    17          0.830              1.310              0.729
 Vibration    18          0.847              1.270              0.681
 Vibration    19          0.910              1.130              0.535

 Optimization completed.
    -- Stationary point found.
 Normal termination of Gaussian 16 at Fri Jul 19 10:03:04 2024.
 Gaussian 16:  ES64L-G16RevA.03 25-Dec-2016

 ----------------------------------------------------------------------
 # TD(NStates=10, Root=1) B3LYP/6-31G** SCRF=(Solvent=water) volume pop
 =NPA density=current Geom=AllCheck Guess=Read
 ----------------------------------------------------------------------

 Structure from the checkpoint file:  "SXJVFQLYZSNZBT-UHFFFAOYSA-N_conf_0_2.chk"
 ----------------------------------
 SXJVFQLYZSNZBT-UHFFFAOYSA-N_conf_0
 ----------------------------------
 Charge =  0 Multiplicity = 1

                         Standard orientation:
 ---------------------------------------------------------------------
 Center     Atomic      Atomic             Coordinates (Angstroms)
 Number     Number       Type             X           Y           Z
 ---------------------------------------------------------------------
      1          7           0        5.200716    1.131995   -0.252211
      2          6           0        4.743191   -0.160370    0.285349
      3          6           0        3.316460   -0.488192   -0.170235
      4          6           0        2.256290    0.497996    0.338558
      5          6           0        0.838361    0.256626   -0.205321
      6          6           0        0.189883   -1.056844    0.257695
      7          6           0       -1.226543   -1.300294   -0.290244
      8          6           0       -2.296904   -0.326346    0.222810
      9          6           0       -3.702108   -0.654279   -0.300134
     10          6           0       -4.807665    0.252932    0.249304
     11          7           0       -4.639006    1.649054   -0.189919
     12          1           0        6.138572    1.322861    0.095564
     13          1           0        5.303516    1.046343   -1.262741
     14          1           0        5.402867   -1.001071    0.011450
     15          1           0        4.766551   -0.092313    1.380845
     16          1           0        3.081540   -1.506537    0.162582
     17          1           0        3.292474   -0.515196   -1.270265
     18          1           0        2.574229    1.511988    0.072560
     19          1           0        2.233222    0.463470    1.437855
     20          1           0        0.864847    0.275751   -1.304947
     21          1           0        0.205279    1.100329    0.096291
     22          1           0        0.160650   -1.075850    1.357127
     23          1           0        0.823940   -1.900236   -0.042571
     24          1           0       -1.532927   -2.322946   -0.030871
     25          1           0       -1.200430   -1.262656   -1.388931
     26          1           0       -2.305256   -0.346282    1.322732
     27          1           0       -2.031056    0.697941   -0.066324
     28          1           0       -3.948515   -1.692843   -0.040394
     29          1           0       -3.708160   -0.593032   -1.396658
     30          1           0       -4.846899    0.143106    1.347559
     31          1           0       -5.774256   -0.097118   -0.131809
     32          1           0       -3.850399    2.061164    0.305227
     33          1           0       -5.447546    2.188417    0.113931
 ---------------------------------------------------------------------

 SCF Done:  E(RB3LYP) =  -465.747426210     A.U. after    1 cycles

 Excitation energies and oscillator strengths:

 Excited State   1:      Singlet-A      7.3911 eV  167.75 nm  f=0.0176  <S**2>=0.000
      44 -> 46         0.68492
      44 -> 48        -0.14765
 This state for optimization and/or second-order correction.
 Total Energy, E(TD-HF/TD-DFT) =  -465.475808819
 Copying the excited state density for this state as the 1-particle RhoCI density.

 Excited State   2:      Singlet-A      7.3949 eV  167.66 nm  f=0.0173  <S**2>=0.000
      45 -> 47         0.68703
      45 -> 48        -0.11598

 Excited State   3:      Singlet-A      8.2634 eV  150.04 nm  f=0.0068  <S**2>=0.000
      45 -> 46         0.67169
      45 -> 48         0.19174

 Excited State   4:      Singlet-A      8.4587 eV  146.58 nm  f=0.0011  <S**2>=0.000
      44 -> 47         0.62209
      44 -> 48         0.28282
      44 -> 49        -0.14360

 Excited State   5:      Singlet-A      8.4970 eV  145.91 nm  f=0.0114  <S**2>=0.000
      44 -> 47         0.24477
      44 -> 48        -0.16423
      44 -> 49         0.57139
      44 -> 52         0.21982

 Excited State   6:      Singlet-A      8.5097 eV  145.70 nm  f=0.0081  <S**2>=0.000
      45 -> 46        -0.20584
      45 -> 47         0.13663
      45 -> 48         0.57426
      45 -> 50        -0.23580
      45 -> 51         0.16311
      45 -> 53        -0.11512

 Excited State   7:      Singlet-A      8.5570 eV  144.89 nm  f=0.0156  <S**2>=0.000
      44 -> 46         0.15033
      44 -> 47        -0.22289
      44 -> 48         0.56636
      44 -> 49         0.25639
      44 -> 51        -0.13707

 Excited State   8:      Singlet-A      8.6483 eV  143.36 nm  f=0.0153  <S**2>=0.000
      45 -> 48         0.22096
      45 -> 49        -0.12884
      45 -> 50         0.52324
      45 -> 52         0.23007
      45 -> 53         0.27823
      45 -> 56        -0.11066

 Excited State   9:      Singlet-A      8.8119 eV  140.70 nm  f=0.0489  <S**2>=0.000
      45 -> 49         0.60045
      45 -> 51         0.22812
      45 -> 52        -0.14354
      45 -> 53         0.13230
      45 -> 54         0.16042

 Excited State  10:      Singlet-A      8.9149 eV  139.07 nm  f=0.0414  <S**2>=0.000
      45 -> 48        -0.22372
      45 -> 49        -0.22256
      45 -> 50        -0.10006
      45 -> 51         0.47112
      45 -> 52         0.10039
      45 -> 54         0.35495
      45 -> 55        -0.15094

 The electronic state is 1-A.
 Alpha  occ. eigenvalues --  -14.30794 -14.30771 -10.20052 -10.20031 -10.17381
 Alpha  occ. eigenvalues --  -10.17344 -10.17312 -10.17285 -10.17236 -10.17184
 Alpha  occ. eigenvalues --  -10.16984  -0.87268  -0.87230  -0.80118  -0.77392
 Alpha  occ. eigenvalues --   -0.73715  -0.69662  -0.65390  -0.60990  -0.57993
 Alpha  occ. eigenvalues --   -0.56566  -0.55265  -0.48144  -0.48066  -0.46984
 Alpha  occ. eigenvalues --   -0.45610  -0.44172  -0.43805  -0.42169  -0.41284
 Alpha  occ. eigenvalues --   -0.39957  -0.38555  -0.38402  -0.36387  -0.35558
 Alpha  occ. eigenvalues --   -0.34745  -0.33352  -0.32881  -0.32241  -0.31731
 Alpha  occ. eigenvalues --   -0.31232  -0.30009  -0.29849  -0.23583  -0.23326
 Alpha virt. eigenvalues --    0.08395   0.08711   0.10235   0.11049   0.11868
 Alpha virt. eigenvalues --    0.12618   0.13398   0.13568   0.14315   0.15663
 Alpha virt. eigenvalues --    0.16257   0.16839   0.17855   0.17987   0.18721

 Mulliken charges:
               1
     1  N   -0.633020
     2  C   -0.056596
     3  C   -0.174784
     4  C   -0.169568
     5  C   -0.173260
     6  C   -0.175132
     7  C   -0.189195
     8  C   -0.118262
     9  C   -0.173562
    10  C   -0.096766
    11  N   -0.044466
    12  H    0.250858
    13  H    0.248113
    14  H    0.079015
    15  H    0.098414
    16  H    0.094702
    17  H    0.088126
    18  H    0.092916
    19  H    0.082528
    20  H    0.083384
    21  H    0.082962
    22  H    0.084627
    23  H    0.089103
    24  H    0.083038
    25  H    0.084300
    26  H    0.055456
    27  H    0.014683
    28  H    0.090062
    29  H    0.105466
    30  H    0.123391
    31  H    0.087143
    32  H   -0.008350
    33  H   -0.005328
 Sum of Mulliken charges =  -0.00000

 Dipole moment (field-independent basis, Debye):
    X=             -0.1026    Y=             -1.9292    Z=             -0.7749  Tot=              2.0815
 Quadrupole moment (field-independent basis, Debye-Ang):
   XX=            -54.5284   YY=            -79.4716   ZZ=            -72.3421
   XY=              0.2459   XZ=             -2.3125   YZ=             -1.6209

 Summary of Natural Population Analysis:

                                       Natural Population
                Natural  -----------------------------------------------
    Atom  No    Charge         Core      Valence    Rydberg      Total
 -----------------------------------------------------------------------
      N    1   -0.93262      1.99968     5.91808    0.01487     7.93262
      C    2   -0.25873      1.99936     4.24581    0.01355     6.25873
      C    3   -0.47569      1.99933     4.46513    0.01124     6.47569
      C    4   -0.46297      1.99934     4.45176    0.01187     6.46297
      C    5   -0.46101      1.99933     4.45065    0.01102     6.46101
      C    6   -0.45913      1.99934     4.44882    0.01097     6.45913
      C    7   -0.46398      1.99934     4.45186    0.01279     6.46398
      C    8   -0.48268      1.99932     4.46621    0.01715     6.48268
      C    9   -0.47243      1.99931     4.46186    0.01126     6.47243
      C   10   -0.35644      1.99929     4.33940    0.01775     6.35644
      N   11   -0.37206      1.99933     5.34851    0.02422     7.37206
      H   12    0.39012      0.00000     0.60729    0.00259     0.60988
      H   13    0.38249      0.00000     0.61453    0.00298     0.61751
      H   14    0.20729      0.00000     0.79018    0.00253     0.79271
      H   15    0.22257      0.00000     0.77527    0.00216     0.77743
      H   16    0.23597      0.00000     0.76226    0.00177     0.76403
      H   17    0.22608      0.00000     0.77159    0.00233     0.77392
      H   18    0.24167      0.00000     0.75566    0.00266     0.75833
      H   19    0.22481      0.00000     0.77290    0.00229     0.77519
      H   20    0.22496      0.00000     0.77257    0.00248     0.77504
      H   21    0.22823      0.00000     0.76772    0.00405     0.77177
      H   22    0.22582      0.00000     0.77176    0.00242     0.77418
      H   23    0.23293      0.00000     0.76523    0.00184     0.76707
      H   24    0.23177      0.00000     0.76588    0.00236     0.76823
      H   25    0.22536      0.00000     0.77205    0.00259     0.77464
      H   26    0.21147      0.00000     0.77682    0.01171     0.78853
      H   27    0.17180      0.00000     0.80033    0.02788     0.82820
      H   28    0.22937      0.00000     0.76318    0.00745     0.77063
      H   29    0.24082      0.00000     0.75346    0.00571     0.75918
      H   30    0.25871      0.00000     0.71240    0.02889     0.74129
      H   31    0.21777      0.00000     0.75952    0.02271     0.78223
      H   32    0.18345      0.00000     0.73480    0.08175     0.81655
      H   33    0.18303      0.00000     0.73485    0.08211     0.81697
 =======================================================================
   * Total *   -0.00124     21.99296    67.54832    0.45996    90.00124

 Normal termination of Gaussian 16 at Fri Jul 19 10:15:49 2024.
