 Gaussian 16, Revision A.03,

 -------------------------------------------------------
 # opt=CalcFc B3LYP/6-31G** SCRF=(Solvent=water) scf=xqc
 -------------------------------------------------------

 ----------------------------------
 BEPGHZIEOVULBU-UHFFFAOYSA-N_conf_2
 ----------------------------------
 Symbolic Z-matrix:
 Charge =  0 Multiplicity = 1

 SCF Done:  E(RB3LYP) =  -387.100135724     A.U. after   11 cycles
 SCF Done:  E(RB3LYP) =  -387.102781311     A.U. after    9 cycles
 SCF Done:  E(RB3LYP) =  -387.103011884     A.U. after    9 cycles
 SCF Done:  E(RB3LYP) =  -387.103024752     A.U. after    9 cycles
 SCF Done:  E(RB3LYP) =  -387.103026729     A.U. after    7 cycles
 SCF Done:  E(RB3LYP) =  -387.103026832     A.U. after    7 cycles
 Optimization completed.
    -- Stationary point found.
 Normal termination of Gaussian 16 at Thu Jul 11 17:55:38 2024.

 ----------------------------------------------------------------------
 # freq B3LYP/6-31G** SCRF=(Solvent=water) volume NMR pop=NPA density=c
 urrent Geom=AllCheck Guess=Read
 ----------------------------------------------------------------------

 Structure from the checkpoint file:  "BEPGHZIEOVULBU-UHFFFAOYSA-N_conf_2_1.chk"
 ----------------------------------
 BEPGHZIEOVULBU-UHFFFAOYSA-N_conf_2
 ----------------------------------
 Charge =  0 Multiplicity = 1

 SCF Done:  E(RB3LYP) =  -387.103026832     A.U. after    1 cycles

      1  C    Isotropic =   178.8640   Anisotropy =    23.0582

      2  C    Isotropic =   151.7776   Anisotropy =    36.1190

      3  N    Isotropic =   214.5562   Anisotropy =    47.3603

      4  C    Isotropic =   144.5650   Anisotropy =    28.1774

      5  C    Isotropic =   169.7360   Anisotropy =    17.8820

      6  C    Isotropic =   143.3148   Anisotropy =    28.8434

      7  N    Isotropic =   218.3934   Anisotropy =    40.1836

      8  C    Isotropic =   151.8827   Anisotropy =    36.8647

      9  C    Isotropic =   176.6387   Anisotropy =    23.6999

     10  H    Isotropic =    31.2946   Anisotropy =     9.2893

     11  H    Isotropic =    30.1147   Anisotropy =     6.9087

     12  H    Isotropic =    30.9798   Anisotropy =    10.1161

     13  H    Isotropic =    28.8193   Anisotropy =     5.7653

     14  H    Isotropic =    29.0313   Anisotropy =     8.0675

     15  H    Isotropic =    31.0760   Anisotropy =    13.5072

     16  H    Isotropic =    28.4018   Anisotropy =     7.2498

     17  H    Isotropic =    29.1844   Anisotropy =     7.3034

     18  H    Isotropic =    31.1310   Anisotropy =    10.0101

     19  H    Isotropic =    29.4922   Anisotropy =     3.9524

     20  H    Isotropic =    29.0537   Anisotropy =     7.6599

     21  H    Isotropic =    29.0098   Anisotropy =     6.6294

     22  H    Isotropic =    28.4778   Anisotropy =    17.4645

     23  H    Isotropic =    29.3351   Anisotropy =     7.5089

     24  H    Isotropic =    28.7544   Anisotropy =     5.5224

     25  H    Isotropic =    31.0681   Anisotropy =     9.1589

     26  H    Isotropic =    30.9914   Anisotropy =    10.1569

     27  H    Isotropic =    30.5929   Anisotropy =     6.8262

  Exact polarizability: 121.472  -0.942 119.528   1.886  -0.057 105.506
 Approx polarizability: 119.907  -0.781 125.741   2.103  -0.250 119.278

                      1                      2                      3
                      A                      A                      A
 Frequencies --     32.1984                66.8136                70.2798
 Red. masses --      2.8542                 2.3875                 2.2870
 Frc consts  --      0.0017                 0.0063                 0.0067
 IR Inten    --      0.0777                 0.0068                 0.2568

                      4                      5                      6
                      A                      A                      A
 Frequencies --     73.6955               142.1266               175.1940
 Red. masses --      2.6912                 1.9545                 2.6137
 Frc consts  --      0.0086                 0.0233                 0.0473
 IR Inten    --      1.1736                 1.4096                 2.2457

                      7                      8                      9
                      A                      A                      A
 Frequencies --    216.7409               243.7232               273.1335
 Red. masses --      1.4627                 1.2423                 2.1432
 Frc consts  --      0.0405                 0.0435                 0.0942
 IR Inten    --      0.6376                 0.2858                 1.4975

                     10                     11                     12
                      A                      A                      A
 Frequencies --    294.5055               382.6169               435.8015
 Red. masses --      1.8256                 1.8694                 2.2902
 Frc consts  --      0.0933                 0.1612                 0.2563
 IR Inten    --      1.7459                 8.0376                 3.5060

                     13                     14                     15
                      A                      A                      A
 Frequencies --    455.2882               463.4516               503.2741
 Red. masses --      2.2662                 1.9802                 1.7172
 Frc consts  --      0.2768                 0.2506                 0.2563
 IR Inten    --     16.1577                 5.9460                 4.9372

                     16                     17                     18
                      A                      A                      A
 Frequencies --    749.8831               759.8430               786.8361
 Red. masses --      1.4173                 2.3233                 1.4118
 Frc consts  --      0.4696                 0.7903                 0.5150
 IR Inten    --     41.3369                84.6525                 1.7700

                     19                     20                     21
                      A                      A                      A
 Frequencies --    815.0845               829.8449               874.6833
 Red. masses --      1.3553                 1.8909                 1.6558
 Frc consts  --      0.5305                 0.7672                 0.7464
 IR Inten    --      0.9401                18.6680                40.2071

                     22                     23                     24
                      A                      A                      A
 Frequencies --    887.6193               915.0051               942.0626
 Red. masses --      1.4077                 1.7652                 2.2707
 Frc consts  --      0.6534                 0.8708                 1.1873
 IR Inten    --    126.6892                 1.2075                 4.0733

                     25                     26                     27
                      A                      A                      A
 Frequencies --    963.8275              1034.1082              1056.6531
 Red. masses --      2.0407                 2.3744                 1.6259
 Frc consts  --      1.1169                 1.4960                 1.0696
 IR Inten    --     35.8744                 4.5409                 1.0924

                     28                     29                     30
                      A                      A                      A
 Frequencies --   1067.9525              1095.5825              1117.7598
 Red. masses --      1.8677                 1.9694                 1.8440
 Frc consts  --      1.2550                 1.3927                 1.3574
 IR Inten    --     21.7616                30.9180                 9.7344

                     31                     32                     33
                      A                      A                      A
 Frequencies --   1129.9677              1159.3006              1181.8521
 Red. masses --      1.7269                 3.0139                 2.0964
 Frc consts  --      1.2991                 2.3865                 1.7253
 IR Inten    --     20.7457                99.3006                24.3526

                     34                     35                     36
                      A                      A                      A
 Frequencies --   1201.4688              1252.7642              1274.6958
 Red. masses --      1.7932                 1.3720                 1.2227
 Frc consts  --      1.5251                 1.2686                 1.1705
 IR Inten    --      1.9776                 3.9671                12.5523

                     37                     38                     39
                      A                      A                      A
 Frequencies --   1312.0770              1325.0111              1338.4523
 Red. masses --      1.1341                 1.1595                 1.1235
 Frc consts  --      1.1503                 1.1994                 1.1858
 IR Inten    --      1.7597                 9.2513                 5.0187

                     40                     41                     42
                      A                      A                      A
 Frequencies --   1377.4136              1386.0289              1393.3871
 Red. masses --      1.2760                 1.2659                 1.3562
 Frc consts  --      1.4264                 1.4328                 1.5514
 IR Inten    --     27.4393                16.2130                15.5051

                     43                     44                     45
                      A                      A                      A
 Frequencies --   1403.5927              1412.8963              1416.9590
 Red. masses --      1.2677                 1.3056                 1.2994
 Frc consts  --      1.4715                 1.5356                 1.5371
 IR Inten    --      3.1285                 8.1466                35.7097

                     46                     47                     48
                      A                      A                      A
 Frequencies --   1419.5443              1481.3356              1486.8717
 Red. masses --      1.3280                 1.0867                 1.0815
 Frc consts  --      1.5767                 1.4049                 1.4087
 IR Inten    --     29.5081                 4.0385                 2.8502

                     49                     50                     51
                      A                      A                      A
 Frequencies --   1489.3481              1493.8832              1497.2060
 Red. masses --      1.0624                 1.0863                 1.0598
 Frc consts  --      1.3884                 1.4283                 1.3996
 IR Inten    --      2.4421                 3.0902                 0.6112

                     52                     53                     54
                      A                      A                      A
 Frequencies --   1499.2616              1502.4598              1509.7593
 Red. masses --      1.1317                 1.0718                 1.0785
 Frc consts  --      1.4988                 1.4254                 1.4484
 IR Inten    --      7.7663                 5.4980                 4.7270

                     55                     56                     57
                      A                      A                      A
 Frequencies --   1517.3357              1518.8729              1538.1747
 Red. masses --      1.1012                 1.0855                 1.2065
 Frc consts  --      1.4938                 1.4754                 1.6819
 IR Inten    --      4.5625                 3.7353                24.8143

                     58                     59                     60
                      A                      A                      A
 Frequencies --   2941.3286              2971.6002              3007.2918
 Red. masses --      1.0724                 1.0700                 1.0684
 Frc consts  --      5.4662                 5.5670                 5.6930
 IR Inten    --    126.2235               110.9690                79.7831

                     61                     62                     63
                      A                      A                      A
 Frequencies --   3029.6547              3037.7830              3039.3207
 Red. masses --      1.0623                 1.0411                 1.0359
 Frc consts  --      5.7452                 5.6608                 5.6382
 IR Inten    --     59.6582                46.0990                30.3761

                     64                     65                     66
                      A                      A                      A
 Frequencies --   3040.6479              3053.9962              3057.3407
 Red. masses --      1.0587                 1.0938                 1.0888
 Frc consts  --      5.7669                 6.0106                 5.9966
 IR Inten    --     27.2348                25.6217                53.0223

                     67                     68                     69
                      A                      A                      A
 Frequencies --   3067.1411              3071.4726              3079.5010
 Red. masses --      1.0936                 1.0997                 1.1008
 Frc consts  --      6.0614                 6.1125                 6.1507
 IR Inten    --     72.7673               115.2597                32.8391

                     70                     71                     72
                      A                      A                      A
 Frequencies --   3106.2730              3107.9140              3114.1723
 Red. masses --      1.1021                 1.1015                 1.1034
 Frc consts  --      6.2655                 6.2688                 6.3046
 IR Inten    --     68.6501                71.6280                66.3377

                     73                     74                     75
                      A                      A                      A
 Frequencies --   3117.1580              3458.2779              3513.1887
 Red. masses --      1.1024                 1.0744                 1.0747
 Frc consts  --      6.3113                 7.5710                 7.8149
 IR Inten    --     72.5720               120.8038                 0.2245

 - Thermochemistry -
 -------------------
 Temperature   298.150 Kelvin.  Pressure   1.00000 Atm.
 Atom     1 has atomic number  6 and mass  12.00000

 Molecular mass:   130.14700 amu.
 Principal axes and moments of inertia in atomic units:
                           1         2         3
     Eigenvalues --   680.498012434.951022794.50340
           X            1.00000  -0.00062   0.00254
           Y            0.00063   0.99999  -0.00336
           Z           -0.00254   0.00336   0.99999
 This molecule is an asymmetric top.
 Rotational symmetry number  1.
 Warning -- assumption of classical behavior for rotation
           may cause significant error
 Rotational temperatures (Kelvin)      0.12728     0.03557     0.03099
 Rotational constants (GHZ):           2.65209     0.74118     0.64582
 Zero-point vibrational energy     664283.8 (Joules/Mol)
                                  158.76763 (Kcal/Mol)
 Warning -- explicit consideration of  15 degrees of freedom as
           vibrations may cause significant error
 Vibrational temperatures:     46.33    96.13   101.12   106.03   204.49
          (Kelvin)            252.07   311.84   350.66   392.98   423.73
                              550.50   627.02   655.06   666.80   724.10
                             1078.91  1093.24  1132.08  1172.72  1193.96
                             1258.47  1277.09  1316.49  1355.42  1386.73
                             1487.85  1520.29  1536.55  1576.30  1608.21
                             1625.77  1667.97  1700.42  1728.65  1802.45
                             1834.00  1887.79  1906.40  1925.73  1981.79
                             1994.19  2004.77  2019.46  2032.84  2038.69
                             2042.41  2131.31  2139.28  2142.84  2149.36
                             2154.15  2157.10  2161.70  2172.21  2183.11
                             2185.32  2213.09  4231.92  4275.47  4326.82
                             4359.00  4370.69  4372.90  4374.81  4394.02
                             4398.83  4412.93  4419.16  4430.72  4469.23
                             4471.60  4480.60  4484.90  4975.69  5054.69

 Zero-point correction=                           0.253012 (Hartree/Particle)
 Thermal correction to Energy=                    0.264647
 Thermal correction to Enthalpy=                  0.265592
 Thermal correction to Gibbs Free Energy=         0.214645
 Sum of electronic and zero-point Energies=           -386.850015
 Sum of electronic and thermal Energies=              -386.838379
 Sum of electronic and thermal Enthalpies=            -386.837435
 Sum of electronic and thermal Free Energies=         -386.888382

                     E (Thermal)             CV                S
                      KCal/Mol        Cal/Mol-Kelvin    Cal/Mol-Kelvin
 Total                  166.069             41.932            107.227
 Electronic               0.000              0.000              0.000
 Translational            0.889              2.981             40.503
 Rotational               0.889              2.981             29.916
 Vibrational            164.291             35.971             36.807
 Vibration     1          0.594              1.983              5.689
 Vibration     2          0.598              1.970              4.245
 Vibration     3          0.598              1.968              4.146
 Vibration     4          0.599              1.966              4.052
 Vibration     5          0.616              1.911              2.775
 Vibration     6          0.627              1.873              2.379
 Vibration     7          0.646              1.816              1.986
 Vibration     8          0.659              1.773              1.776
 Vibration     9          0.676              1.723              1.576
 Vibration    10          0.689              1.684              1.448
 Vibration    11          0.752              1.507              1.029
 Vibration    12          0.796              1.392              0.840
 Vibration    13          0.814              1.349              0.780
 Vibration    14          0.821              1.331              0.756
 Vibration    15          0.859              1.243              0.650

 Optimization completed.
    -- Stationary point found.
 Normal termination of Gaussian 16 at Thu Jul 11 18:22:58 2024.
 Gaussian 16:  EM64L-G16RevA.03 25-Dec-2016

 ----------------------------------------------------------------------
 # TD(NStates=10, Root=1) B3LYP/6-31G** SCRF=(Solvent=water) volume pop
 =NPA density=current Geom=AllCheck Guess=Read
 ----------------------------------------------------------------------

 Structure from the checkpoint file:  "BEPGHZIEOVULBU-UHFFFAOYSA-N_conf_2_2.chk"
 ----------------------------------
 BEPGHZIEOVULBU-UHFFFAOYSA-N_conf_2
 ----------------------------------
 Charge =  0 Multiplicity = 1

                         Standard orientation:
 ---------------------------------------------------------------------
 Center     Atomic      Atomic             Coordinates (Angstroms)
 Number     Number       Type             X           Y           Z
 ---------------------------------------------------------------------
      1          6           0       -3.503124   -0.928965    0.423522
      2          6           0       -2.047382   -1.064172   -0.044306
      3          7           0       -1.507703    0.069260   -0.810755
      4          6           0       -1.313548    1.317324   -0.049144
      5          6           0       -0.008191    1.339061    0.760983
      6          6           0        1.270681    1.305885   -0.099364
      7          7           0        1.555479    0.038272   -0.789633
      8          6           0        2.106754   -1.014988    0.073374
      9          6           0        3.613838   -0.859701    0.292427
     10          1           0       -4.176447   -0.800549   -0.431779
     11          1           0       -3.642701   -0.075352    1.094012
     12          1           0       -3.816842   -1.828658    0.964064
     13          1           0       -1.394296   -1.230654    0.819837
     14          1           0       -1.955873   -1.958280   -0.672868
     15          1           0       -2.133981    0.256933   -1.590332
     16          1           0       -2.157614    1.537481    0.625241
     17          1           0       -1.282747    2.135926   -0.778591
     18          1           0       -0.006597    2.260611    1.358595
     19          1           0        0.003236    0.513856    1.484419
     20          1           0        1.196001    2.099510   -0.857110
     21          1           0        2.134385    1.565822    0.524004
     22          1           0        0.660440   -0.280321   -1.162628
     23          1           0        1.918971   -1.974455   -0.422955
     24          1           0        1.605699   -1.076761    1.056562
     25          1           0        4.144760   -0.870695   -0.664949
     26          1           0        4.000325   -1.675018    0.913621
     27          1           0        3.854683    0.081219    0.798629
 ---------------------------------------------------------------------

 SCF Done:  E(RB3LYP) =  -387.103026832     A.U. after    1 cycles

 Excitation energies and oscillator strengths:

 Excited State   1:      Singlet-A      6.6729 eV  185.80 nm  f=0.0185  <S**2>=0.000
      37 -> 38         0.68938
 This state for optimization and/or second-order correction.
 Total Energy, E(TD-HF/TD-DFT) =  -386.857801080
 Copying the excited state density for this state as the 1-particle RhoCI density.

 Excited State   2:      Singlet-A      7.1171 eV  174.21 nm  f=0.0182  <S**2>=0.000
      36 -> 38        -0.39799
      36 -> 39         0.12151
      37 -> 39         0.56320

 Excited State   3:      Singlet-A      7.3854 eV  167.88 nm  f=0.0281  <S**2>=0.000
      36 -> 38         0.51229
      37 -> 39         0.36787
      37 -> 40        -0.28559

 Excited State   4:      Singlet-A      7.6118 eV  162.88 nm  f=0.0046  <S**2>=0.000
      36 -> 38         0.13007
      37 -> 40         0.50581
      37 -> 41         0.44793

 Excited State   5:      Singlet-A      7.6646 eV  161.76 nm  f=0.0351  <S**2>=0.000
      36 -> 38        -0.19286
      36 -> 39         0.10923
      37 -> 38         0.10563
      37 -> 39        -0.16114
      37 -> 40        -0.36260
      37 -> 41         0.51029

 Excited State   6:      Singlet-A      7.8438 eV  158.07 nm  f=0.0095  <S**2>=0.000
      36 -> 38         0.10124
      36 -> 39         0.63004
      36 -> 40        -0.16012
      37 -> 40         0.11324
      37 -> 43         0.13679

 Excited State   7:      Singlet-A      8.2148 eV  150.93 nm  f=0.0273  <S**2>=0.000
      36 -> 39        -0.19099
      36 -> 41         0.45202
      37 -> 42         0.33773
      37 -> 43         0.34774

 Excited State   8:      Singlet-A      8.2818 eV  149.71 nm  f=0.0135  <S**2>=0.000
      36 -> 40        -0.25413
      36 -> 41        -0.16678
      37 -> 42         0.47464
      37 -> 43        -0.34995
      37 -> 44         0.20301

 Excited State   9:      Singlet-A      8.4264 eV  147.14 nm  f=0.0218  <S**2>=0.000
      36 -> 39         0.10830
      36 -> 40         0.53442
      36 -> 41         0.19742
      37 -> 43        -0.20910
      37 -> 44         0.30638

 Excited State  10:      Singlet-A      8.5089 eV  145.71 nm  f=0.0192  <S**2>=0.000
      36 -> 40         0.31743
      36 -> 41        -0.34215
      37 -> 42         0.34441
      37 -> 43         0.23316
      37 -> 44        -0.29396

 The electronic state is 1-A.
 Alpha  occ. eigenvalues --  -14.31761 -14.29744 -10.20396 -10.20236 -10.19746
 Alpha  occ. eigenvalues --  -10.19539 -10.17302 -10.17097 -10.16701  -0.89883
 Alpha  occ. eigenvalues --   -0.88010  -0.76370  -0.73229  -0.71307  -0.65284
 Alpha  occ. eigenvalues --   -0.61628  -0.58360  -0.55235  -0.49410  -0.48616
 Alpha  occ. eigenvalues --   -0.45730  -0.44568  -0.42620  -0.41195  -0.40429
 Alpha  occ. eigenvalues --   -0.39938  -0.38472  -0.37212  -0.36245  -0.35146
 Alpha  occ. eigenvalues --   -0.34871  -0.33642  -0.33355  -0.32224  -0.32003
 Alpha  occ. eigenvalues --   -0.22788  -0.20224
 Alpha virt. eigenvalues --    0.07814   0.09789   0.11156   0.11565   0.13411
 Alpha virt. eigenvalues --    0.14011   0.14752   0.15781   0.16891   0.17365
 Alpha virt. eigenvalues --    0.17445   0.17911   0.18710   0.19130   0.19636

 Mulliken charges:
               1
     1  C   -0.297339
     2  C    0.009198
     3  N   -0.380957
     4  C   -0.016648
     5  C   -0.123961
     6  C   -0.046638
     7  N   -0.348446
     8  C   -0.026522
     9  C   -0.313936
    10  H    0.080128
    11  H    0.073283
    12  H    0.071695
    13  H    0.015943
    14  H    0.035331
    15  H    0.150869
    16  H    0.072018
    17  H    0.046602
    18  H    0.048313
    19  H    0.036849
    20  H    0.102947
    21  H    0.087191
    22  H    0.262157
    23  H    0.079655
    24  H    0.065257
    25  H    0.115588
    26  H    0.102251
    27  H    0.099171
 Sum of Mulliken charges =  -0.00000

 Dipole moment (field-independent basis, Debye):
    X=              1.5855    Y=              0.6220    Z=             -0.9058  Tot=              1.9290
 Quadrupole moment (field-independent basis, Debye-Ang):
   XX=            -63.2898   YY=            -61.9290   ZZ=            -63.1986
   XY=             -2.0333   XZ=              1.4123   YZ=             -0.2165

 Summary of Natural Population Analysis:

                                       Natural Population
                Natural  -----------------------------------------------
    Atom  No    Charge         Core      Valence    Rydberg      Total
 -----------------------------------------------------------------------
      C    1   -0.70950      1.99943     4.70004    0.01002     6.70950
      C    2   -0.30020      1.99937     4.28178    0.01904     6.30020
      N    3   -0.54252      1.99948     5.52886    0.01417     7.54252
      C    4   -0.29452      1.99930     4.27765    0.01757     6.29452
      C    5   -0.48021      1.99929     4.46882    0.01209     6.48021
      C    6   -0.30261      1.99931     4.28563    0.01767     6.30261
      N    7   -0.40237      1.99946     5.39180    0.01112     7.40237
      C    8   -0.30507      1.99933     4.28990    0.01585     6.30507
      C    9   -0.70324      1.99944     4.69441    0.00939     6.70324
      H   10    0.21527      0.00000     0.77365    0.01108     0.78473
      H   11    0.20528      0.00000     0.78080    0.01392     0.79472
      H   12    0.21098      0.00000     0.77784    0.01118     0.78902
      H   13    0.16186      0.00000     0.80023    0.03791     0.83814
      H   14    0.18952      0.00000     0.78558    0.02490     0.81048
      H   15    0.31509      0.00000     0.63601    0.04890     0.68491
      H   16    0.21111      0.00000     0.76631    0.02257     0.78889
      H   17    0.19544      0.00000     0.78070    0.02386     0.80456
      H   18    0.20319      0.00000     0.77747    0.01934     0.79681
      H   19    0.18544      0.00000     0.78160    0.03296     0.81456
      H   20    0.23701      0.00000     0.75147    0.01153     0.76299
      H   21    0.21553      0.00000     0.76641    0.01807     0.78447
      H   22    0.39333      0.00000     0.58854    0.01813     0.60667
      H   23    0.21523      0.00000     0.76783    0.01694     0.78477
      H   24    0.19527      0.00000     0.77419    0.03053     0.80473
      H   25    0.23731      0.00000     0.75963    0.00306     0.76269
      H   26    0.23265      0.00000     0.76088    0.00647     0.76735
      H   27    0.22074      0.00000     0.77056    0.00870     0.77926
 =======================================================================
   * Total *   -0.00000     17.99442    55.51861    0.48697    74.00000

 1\1\GINC-CN33\SP\RB3LYP TD-FC\6-31G(d,p)\C7H18N2\QDUEZ\11-Jul-2024\0\\
 # TD(NStates=10, Root=1) B3LYP/6-31G** SCRF=(Solvent=water) volume pop
 =NPA density=current Geom=AllCheck Guess=Read\\BEPGHZIEOVULBU-UHFFFAOY
 SA-N_conf_2\\0,1\C,0,-3.2496415004,0.9574637058,-1.1354378361\C,0,-1.8
 559477217,1.1531420082,-0.5225296089\N,0,-1.5750560229,0.3859037852,0.
 7005041881\C,0,-1.4665420655,-1.0744559756,0.5244801342\C,0,-0.0892817
 833,-1.5251943012,0.0138696601\C,0,1.0692910236,-1.2501167701,0.993080
 5139\N,0,1.4428556348,0.1610520878,1.1760460217\C,0,2.2347803636,0.729

 Normal termination of Gaussian 16 at Thu Jul 11 18:54:16 2024.
