 Gaussian 16, Revision A.03,

 -------------------------------------------------------
 # opt=CalcFc B3LYP/6-31G** SCRF=(Solvent=water) scf=xqc
 -------------------------------------------------------

 ----------------------------------
 BEPGHZIEOVULBU-UHFFFAOYSA-N_conf_0
 ----------------------------------
 Symbolic Z-matrix:
 Charge =  0 Multiplicity = 1

 SCF Done:  E(RB3LYP) =  -387.097921091     A.U. after   11 cycles
 SCF Done:  E(RB3LYP) =  -387.101264310     A.U. after    9 cycles
 SCF Done:  E(RB3LYP) =  -387.101469097     A.U. after    9 cycles
 SCF Done:  E(RB3LYP) =  -387.101507215     A.U. after    8 cycles
 SCF Done:  E(RB3LYP) =  -387.101514964     A.U. after    7 cycles
 SCF Done:  E(RB3LYP) =  -387.101516375     A.U. after    7 cycles
 SCF Done:  E(RB3LYP) =  -387.101516429     A.U. after    7 cycles
 SCF Done:  E(RB3LYP) =  -387.101516434     A.U. after    5 cycles
 Optimization completed.
    -- Stationary point found.
 Normal termination of Gaussian 16 at Thu Jul 11 17:55:37 2024.

 ----------------------------------------------------------------------
 # freq B3LYP/6-31G** SCRF=(Solvent=water) volume NMR pop=NPA density=c
 urrent Geom=AllCheck Guess=Read
 ----------------------------------------------------------------------

 Structure from the checkpoint file:  "BEPGHZIEOVULBU-UHFFFAOYSA-N_conf_0_1.chk"
 ----------------------------------
 BEPGHZIEOVULBU-UHFFFAOYSA-N_conf_0
 ----------------------------------
 Charge =  0 Multiplicity = 1

 SCF Done:  E(RB3LYP) =  -387.101516434     A.U. after    1 cycles

      1  C    Isotropic =   177.0552   Anisotropy =    21.5061

      2  C    Isotropic =   146.2551   Anisotropy =    43.7881

      3  N    Isotropic =   211.2507   Anisotropy =    47.9768

      4  C    Isotropic =   144.7443   Anisotropy =    41.3519

      5  C    Isotropic =   155.4423   Anisotropy =    33.0059

      6  C    Isotropic =   139.5741   Anisotropy =    49.1885

      7  N    Isotropic =   217.1148   Anisotropy =    25.5847

      8  C    Isotropic =   144.6080   Anisotropy =    49.9824

      9  C    Isotropic =   171.1731   Anisotropy =    28.7927

     10  H    Isotropic =    30.1316   Anisotropy =     6.4610

     11  H    Isotropic =    31.1565   Anisotropy =     7.9763

     12  H    Isotropic =    30.9477   Anisotropy =    10.0079

     13  H    Isotropic =    28.8404   Anisotropy =     8.8367

     14  H    Isotropic =    29.2018   Anisotropy =     7.0627

     15  H    Isotropic =    31.7912   Anisotropy =    10.2434

     16  H    Isotropic =    28.6744   Anisotropy =     5.0594

     17  H    Isotropic =    29.8385   Anisotropy =     4.8049

     18  H    Isotropic =    30.2368   Anisotropy =     4.2600

     19  H    Isotropic =    30.1214   Anisotropy =     6.0630

     20  H    Isotropic =    29.1397   Anisotropy =     6.3987

     21  H    Isotropic =    29.0855   Anisotropy =     5.4987

     22  H    Isotropic =    30.4969   Anisotropy =    14.8474

     23  H    Isotropic =    29.3089   Anisotropy =     5.5401

     24  H    Isotropic =    28.8661   Anisotropy =     8.2449

     25  H    Isotropic =    30.6479   Anisotropy =     5.8504

     26  H    Isotropic =    30.7006   Anisotropy =     7.9548

     27  H    Isotropic =    30.8678   Anisotropy =    10.2072

  Exact polarizability: 129.582   1.080 112.215   1.252   2.484 103.993
 Approx polarizability: 126.124   0.714 120.872   0.793   3.591 114.668

                      1                      2                      3
                      A                      A                      A
 Frequencies --     31.8420                51.8430                74.9535
 Red. masses --      2.8393                 1.9707                 2.4704
 Frc consts  --      0.0017                 0.0031                 0.0082
 IR Inten    --      0.4039                 0.2556                 0.0412

                      4                      5                      6
                      A                      A                      A
 Frequencies --     84.2109               119.8282               139.7982
 Red. masses --      2.5635                 1.8529                 2.7624
 Frc consts  --      0.0107                 0.0157                 0.0318
 IR Inten    --      0.3211                 0.5712                 2.1936

                      7                      8                      9
                      A                      A                      A
 Frequencies --    160.0911               230.8171               238.1475
 Red. masses --      1.8880                 1.1189                 1.5227
 Frc consts  --      0.0285                 0.0351                 0.0509
 IR Inten    --      1.1308                 0.0653                 1.8738

                     10                     11                     12
                      A                      A                      A
 Frequencies --    292.3579               353.2234               370.4942
 Red. masses --      2.0059                 2.8483                 2.5493
 Frc consts  --      0.1010                 0.2094                 0.2062
 IR Inten    --      3.1441                 3.6607                 8.1724

                     13                     14                     15
                      A                      A                      A
 Frequencies --    415.3598               451.0342               529.7674
 Red. masses --      2.2291                 2.3533                 2.3786
 Frc consts  --      0.2266                 0.2821                 0.3933
 IR Inten    --     10.2486                14.4974                28.5531

                     16                     17                     18
                      A                      A                      A
 Frequencies --    755.6197               764.2350               772.4512
 Red. masses --      1.2932                 1.2268                 1.0909
 Frc consts  --      0.4350                 0.4222                 0.3835
 IR Inten    --     75.6447                63.9390                 3.6032

                     19                     20                     21
                      A                      A                      A
 Frequencies --    792.2170               805.4870               858.4780
 Red. masses --      1.5764                 1.4028                 1.7598
 Frc consts  --      0.5829                 0.5362                 0.7642
 IR Inten    --     36.8122                91.9609                 3.4943

                     22                     23                     24
                      A                      A                      A
 Frequencies --    881.6108               908.7651               976.3224
 Red. masses --      1.6537                 1.4257                 2.6878
 Frc consts  --      0.7573                 0.6937                 1.5095
 IR Inten    --      2.7960                15.4221                 3.0796

                     25                     26                     27
                      A                      A                      A
 Frequencies --   1018.8020              1050.2689              1062.9494
 Red. masses --      2.2597                 2.8579                 1.9603
 Frc consts  --      1.3819                 1.8573                 1.3050
 IR Inten    --      6.8956                 8.6273                 5.3321

                     28                     29                     30
                      A                      A                      A
 Frequencies --   1083.7935              1101.3050              1124.0129
 Red. masses --      1.8318                 1.8971                 2.2595
 Frc consts  --      1.2677                 1.3557                 1.6819
 IR Inten    --      4.1602                 8.9431                47.2499

                     31                     32                     33
                      A                      A                      A
 Frequencies --   1132.7021              1165.6983              1177.9672
 Red. masses --      1.7603                 2.7762                 2.5185
 Frc consts  --      1.3307                 2.2227                 2.0590
 IR Inten    --     12.9868               103.7237                21.5258

                     34                     35                     36
                      A                      A                      A
 Frequencies --   1218.9490              1244.8840              1281.8887
 Red. masses --      1.9696                 1.3761                 1.2924
 Frc consts  --      1.7242                 1.2565                 1.2512
 IR Inten    --      4.5493                 4.2071                 0.6974

                     37                     38                     39
                      A                      A                      A
 Frequencies --   1318.0727              1328.3372              1345.3357
 Red. masses --      1.1785                 1.0778                 1.1777
 Frc consts  --      1.2063                 1.1205                 1.2558
 IR Inten    --      2.3965                 8.2168                 3.2883

                     40                     41                     42
                      A                      A                      A
 Frequencies --   1352.5109              1380.2959              1388.7406
 Red. masses --      1.1181                 1.2450                 1.2683
 Frc consts  --      1.2051                 1.3976                 1.4411
 IR Inten    --      2.6102                27.3846                42.1274

                     43                     44                     45
                      A                      A                      A
 Frequencies --   1410.4786              1411.9047              1418.9493
 Red. masses --      1.2342                 1.2842                 1.3764
 Frc consts  --      1.4467                 1.5083                 1.6328
 IR Inten    --      6.1353                10.3962                12.2566

                     46                     47                     48
                      A                      A                      A
 Frequencies --   1436.2649              1480.7367              1483.3372
 Red. masses --      1.4574                 1.0718                 1.0832
 Frc consts  --      1.7713                 1.3846                 1.4042
 IR Inten    --     19.8710                 8.0784                 0.2904

                     49                     50                     51
                      A                      A                      A
 Frequencies --   1491.8708              1493.6697              1497.0614
 Red. masses --      1.0728                 1.0939                 1.0681
 Frc consts  --      1.4068                 1.4379                 1.4103
 IR Inten    --      1.5335                14.3613                 1.2055

                     52                     53                     54
                      A                      A                      A
 Frequencies --   1500.7830              1503.5502              1509.2454
 Red. masses --      1.1455                 1.1240                 1.0957
 Frc consts  --      1.5202                 1.4970                 1.4705
 IR Inten    --      4.5905                 4.8929                 1.2779

                     55                     56                     57
                      A                      A                      A
 Frequencies --   1514.4485              1519.2850              1530.2816
 Red. masses --      1.1044                 1.1050                 1.0937
 Frc consts  --      1.4923                 1.5028                 1.5090
 IR Inten    --      9.2446                 5.4069                 4.6237

                     58                     59                     60
                      A                      A                      A
 Frequencies --   2926.5347              2949.6421              2966.6795
 Red. masses --      1.0720                 1.0705                 1.0707
 Frc consts  --      5.4093                 5.4874                 5.5520
 IR Inten    --    101.6419               145.7023               101.6682

                     61                     62                     63
                      A                      A                      A
 Frequencies --   3026.3176              3029.5079              3035.5554
 Red. masses --      1.0622                 1.0733                 1.0720
 Frc consts  --      5.7316                 5.8037                 5.8199
 IR Inten    --     50.2435                34.3680                46.1692

                     64                     65                     66
                      A                      A                      A
 Frequencies --   3036.5038              3042.3742              3050.5144
 Red. masses --      1.0401                 1.0376                 1.0854
 Frc consts  --      5.6502                 5.6586                 5.9511
 IR Inten    --     32.4023                47.7445                76.7621

                     67                     68                     69
                      A                      A                      A
 Frequencies --   3061.1454              3063.6695              3085.6225
 Red. masses --      1.0918                 1.1040                 1.1027
 Frc consts  --      6.0276                 6.1052                 6.1858
 IR Inten    --     44.7266                41.3109               108.1859

                     70                     71                     72
                      A                      A                      A
 Frequencies --   3103.2221              3110.1813              3116.3183
 Red. masses --      1.1023                 1.1017                 1.1022
 Frc consts  --      6.2542                 6.2787                 6.3065
 IR Inten    --     66.9769                56.4700                72.2790

                     73                     74                     75
                      A                      A                      A
 Frequencies --   3125.0658              3489.7180              3539.9750
 Red. masses --      1.1021                 1.0737                 1.0753
 Frc consts  --      6.3416                 7.7040                 7.9393
 IR Inten    --     68.6649                 1.6870                 0.1764

 - Thermochemistry -
 -------------------
 Temperature   298.150 Kelvin.  Pressure   1.00000 Atm.
 Atom     1 has atomic number  6 and mass  12.00000

 Molecular mass:   130.14700 amu.
 Principal axes and moments of inertia in atomic units:
                           1         2         3
     Eigenvalues --   477.419073672.188323852.24090
           X            0.99996   0.00810  -0.00214
           Y           -0.00810   0.99997   0.00014
           Z            0.00214  -0.00012   1.00000
 This molecule is an asymmetric top.
 Rotational symmetry number  1.
 Warning -- assumption of classical behavior for rotation
           may cause significant error
 Rotational temperatures (Kelvin)      0.18142     0.02359     0.02248
 Rotational constants (GHZ):           3.78020     0.49146     0.46849
 Zero-point vibrational energy     662706.6 (Joules/Mol)
                                  158.39067 (Kcal/Mol)
 Warning -- explicit consideration of  15 degrees of freedom as
           vibrations may cause significant error
 Vibrational temperatures:     45.81    74.59   107.84   121.16   172.41
          (Kelvin)            201.14   230.34   332.09   342.64   420.64
                              508.21   533.06   597.61   648.94   762.22
                             1087.17  1099.56  1111.39  1139.82  1158.92
                             1235.16  1268.44  1307.51  1404.71  1465.83
                             1511.10  1529.35  1559.34  1584.53  1617.20
                             1629.71  1677.18  1694.83  1753.80  1791.11
                             1844.35  1896.41  1911.18  1935.64  1945.96
                             1985.94  1998.09  2029.36  2031.42  2041.55
                             2066.46  2130.45  2134.19  2146.47  2149.06
                             2153.94  2159.29  2163.27  2171.47  2178.95
                             2185.91  2201.73  4210.63  4243.88  4268.39
                             4354.20  4358.79  4367.49  4368.85  4377.30
                             4389.01  4404.31  4407.94  4439.52  4464.84
                             4474.86  4483.69  4496.27  5020.93  5093.23

 Zero-point correction=                           0.252412 (Hartree/Particle)
 Thermal correction to Energy=                    0.264431
 Thermal correction to Enthalpy=                  0.265375
 Thermal correction to Gibbs Free Energy=         0.213172
 Sum of electronic and zero-point Energies=           -386.849105
 Sum of electronic and thermal Energies=              -386.837086
 Sum of electronic and thermal Enthalpies=            -386.836142
 Sum of electronic and thermal Free Energies=         -386.888344

                     E (Thermal)             CV                S
                      KCal/Mol        Cal/Mol-Kelvin    Cal/Mol-Kelvin
 Total                  165.933             42.372            109.870
 Electronic               0.000              0.000              0.000
 Translational            0.889              2.981             40.503
 Rotational               0.889              2.981             30.291
 Vibrational            164.155             36.410             39.075
 Vibration     1          0.594              1.983              5.711
 Vibration     2          0.596              1.977              4.746
 Vibration     3          0.599              1.966              4.019
 Vibration     4          0.601              1.960              3.790
 Vibration     5          0.609              1.933              3.103
 Vibration     6          0.615              1.914              2.807
 Vibration     7          0.622              1.891              2.549
 Vibration     8          0.653              1.794              1.873
 Vibration     9          0.656              1.782              1.817
 Vibration    10          0.688              1.688              1.460
 Vibration    11          0.729              1.569              1.152
 Vibration    12          0.742              1.533              1.078
 Vibration    13          0.779              1.437              0.908
 Vibration    14          0.810              1.359              0.793
 Vibration    15          0.885              1.184              0.588

 Optimization completed.
    -- Stationary point found.
 Normal termination of Gaussian 16 at Thu Jul 11 18:19:28 2024.
 Gaussian 16:  EM64L-G16RevA.03 25-Dec-2016

 ----------------------------------------------------------------------
 # TD(NStates=10, Root=1) B3LYP/6-31G** SCRF=(Solvent=water) volume pop
 =NPA density=current Geom=AllCheck Guess=Read
 ----------------------------------------------------------------------

 Structure from the checkpoint file:  "BEPGHZIEOVULBU-UHFFFAOYSA-N_conf_0_2.chk"
 ----------------------------------
 BEPGHZIEOVULBU-UHFFFAOYSA-N_conf_0
 ----------------------------------
 Charge =  0 Multiplicity = 1

                         Standard orientation:
 ---------------------------------------------------------------------
 Center     Atomic      Atomic             Coordinates (Angstroms)
 Number     Number       Type             X           Y           Z
 ---------------------------------------------------------------------
      1          6           0       -4.069623   -0.017537    0.923147
      2          6           0       -3.506768    0.337683   -0.461424
      3          7           0       -2.076245    0.655653   -0.530896
      4          6           0       -1.180393   -0.449575   -0.179043
      5          6           0        0.283848   -0.053096   -0.384615
      6          6           0        1.251072   -1.185048   -0.022840
      7          7           0        2.653181   -0.883440   -0.336455
      8          6           0        3.326638    0.041001    0.593257
      9          6           0        3.434871    1.470138    0.053046
     10          1           0       -3.606412   -0.919726    1.334509
     11          1           0       -3.903843    0.801188    1.633110
     12          1           0       -5.149027   -0.196045    0.864520
     13          1           0       -4.053663    1.202685   -0.856803
     14          1           0       -3.695018   -0.491201   -1.156421
     15          1           0       -1.886010    1.440022    0.091652
     16          1           0       -1.313821   -0.812563    0.855646
     17          1           0       -1.425916   -1.296702   -0.834561
     18          1           0        0.441375    0.240870   -1.428802
     19          1           0        0.500373    0.830448    0.230207
     20          1           0        0.977009   -2.077794   -0.599039
     21          1           0        1.112304   -1.444099    1.044145
     22          1           0        3.159478   -1.763321   -0.329393
     23          1           0        2.824542    0.052712    1.575776
     24          1           0        4.339902   -0.336694    0.772813
     25          1           0        2.450947    1.916363   -0.117552
     26          1           0        3.975826    1.478684   -0.898721
     27          1           0        3.975532    2.108278    0.761209
 ---------------------------------------------------------------------

 SCF Done:  E(RB3LYP) =  -387.101516434     A.U. after    1 cycles

 Excitation energies and oscillator strengths:

 Excited State   1:      Singlet-A      7.0471 eV  175.94 nm  f=0.0126  <S**2>=0.000
      36 -> 38        -0.46151
      37 -> 38         0.49585
      37 -> 39         0.11950
 This state for optimization and/or second-order correction.
 Total Energy, E(TD-HF/TD-DFT) =  -386.842539122
 Copying the excited state density for this state as the 1-particle RhoCI density.

 Excited State   2:      Singlet-A      7.0986 eV  174.66 nm  f=0.0174  <S**2>=0.000
      36 -> 39         0.30717
      37 -> 38        -0.11782
      37 -> 39         0.61470

 Excited State   3:      Singlet-A      7.6265 eV  162.57 nm  f=0.0076  <S**2>=0.000
      36 -> 38         0.42484
      36 -> 39         0.19172
      37 -> 38         0.46378
      37 -> 41        -0.21788

 Excited State   4:      Singlet-A      7.7128 eV  160.75 nm  f=0.0277  <S**2>=0.000
      36 -> 38        -0.27620
      36 -> 39         0.48061
      36 -> 40         0.12145
      36 -> 41         0.12252
      37 -> 39        -0.24668
      37 -> 40        -0.30250

 Excited State   5:      Singlet-A      7.8143 eV  158.66 nm  f=0.0348  <S**2>=0.000
      36 -> 39         0.20796
      36 -> 40         0.14792
      37 -> 39        -0.14668
      37 -> 40         0.56753
      37 -> 41        -0.21118

 Excited State   6:      Singlet-A      8.0425 eV  154.16 nm  f=0.0073  <S**2>=0.000
      36 -> 39        -0.23184
      36 -> 40         0.56223
      36 -> 41        -0.10802
      37 -> 40        -0.16194
      37 -> 41        -0.15832
      37 -> 42        -0.14164
      37 -> 43        -0.14270

 Excited State   7:      Singlet-A      8.1574 eV  151.99 nm  f=0.0170  <S**2>=0.000
      36 -> 38         0.10729
      36 -> 39         0.13188
      36 -> 40         0.28268
      37 -> 38         0.11427
      37 -> 40         0.13366
      37 -> 41         0.57550

 Excited State   8:      Singlet-A      8.3159 eV  149.09 nm  f=0.0763  <S**2>=0.000
      36 -> 39        -0.10694
      36 -> 40         0.10525
      36 -> 41         0.28561
      36 -> 42        -0.26792
      36 -> 44        -0.14694
      37 -> 42         0.50808
      37 -> 43        -0.11024
      37 -> 44         0.10092

 Excited State   9:      Singlet-A      8.3562 eV  148.37 nm  f=0.0296  <S**2>=0.000
      36 -> 41         0.40852
      36 -> 43         0.15213
      37 -> 39         0.10054
      37 -> 41        -0.14427
      37 -> 42        -0.19099
      37 -> 43         0.45874

 Excited State  10:      Singlet-A      8.4504 eV  146.72 nm  f=0.0302  <S**2>=0.000
      36 -> 41         0.40522
      36 -> 42         0.35730
      36 -> 43        -0.19336
      37 -> 43        -0.29007
      37 -> 44        -0.23720

 The electronic state is 1-A.
 Alpha  occ. eigenvalues --  -14.31161 -14.31137 -10.20213 -10.20210 -10.20191
 Alpha  occ. eigenvalues --  -10.20036 -10.17388 -10.16931 -10.16759  -0.89603
 Alpha  occ. eigenvalues --   -0.88991  -0.76849  -0.73562  -0.71360  -0.64827
 Alpha  occ. eigenvalues --   -0.60315  -0.59007  -0.57054  -0.49266  -0.48057
 Alpha  occ. eigenvalues --   -0.45471  -0.44859  -0.43731  -0.42249  -0.40576
 Alpha  occ. eigenvalues --   -0.39639  -0.38492  -0.37030  -0.36661  -0.35351
 Alpha  occ. eigenvalues --   -0.34246  -0.34073  -0.33248  -0.32354  -0.31631
 Alpha  occ. eigenvalues --   -0.22276  -0.21370
 Alpha virt. eigenvalues --    0.08660   0.08921   0.10689   0.11816   0.12886
 Alpha virt. eigenvalues --    0.13265   0.14281   0.15238   0.16523   0.16873
 Alpha virt. eigenvalues --    0.17361   0.17577   0.17959   0.18637   0.18865

 Mulliken charges:
               1
     1  C   -0.329757
     2  C   -0.049213
     3  N   -0.520586
     4  C   -0.033035
     5  C   -0.195862
     6  C   -0.031926
     7  N   -0.108404
     8  C   -0.015553
     9  C   -0.315613
    10  H    0.111868
    11  H    0.106377
    12  H    0.106560
    13  H    0.099095
    14  H    0.105756
    15  H    0.245360
    16  H    0.089472
    17  H    0.105026
    18  H    0.112497
    19  H    0.109998
    20  H   -0.011031
    21  H    0.138499
    22  H   -0.133996
    23  H    0.126999
    24  H   -0.053594
    25  H    0.121688
    26  H    0.116229
    27  H    0.103146
 Sum of Mulliken charges =  -0.00000

 Dipole moment (field-independent basis, Debye):
    X=             -2.8244    Y=              2.1082    Z=              1.8417  Tot=              3.9766
 Quadrupole moment (field-independent basis, Debye-Ang):
   XX=            -69.1354   YY=            -64.7360   ZZ=            -61.5876
   XY=              8.0457   XZ=             -1.0610   YZ=              0.5322

 Summary of Natural Population Analysis:

                                       Natural Population
                Natural  -----------------------------------------------
    Atom  No    Charge         Core      Valence    Rydberg      Total
 -----------------------------------------------------------------------
      C    1   -0.71200      1.99946     4.70636    0.00619     6.71200
      C    2   -0.26908      1.99939     4.25420    0.01549     6.26908
      N    3   -0.69279      1.99956     5.67841    0.01481     7.69279
      C    4   -0.27120      1.99934     4.25590    0.01596     6.27120
      C    5   -0.48945      1.99931     4.47360    0.01654     6.48945
      C    6   -0.33087      1.99930     4.31215    0.01942     6.33087
      N    7   -0.21882      1.99934     5.20315    0.01633     7.21882
      C    8   -0.33654      1.99933     4.31830    0.01890     6.33654
      C    9   -0.69337      1.99943     4.68514    0.00879     6.69337
      H   10    0.23094      0.00000     0.76756    0.00149     0.76906
      H   11    0.22923      0.00000     0.76880    0.00197     0.77077
      H   12    0.23965      0.00000     0.75872    0.00163     0.76035
      H   13    0.23191      0.00000     0.76538    0.00271     0.76809
      H   14    0.22697      0.00000     0.77088    0.00215     0.77303
      H   15    0.38502      0.00000     0.60990    0.00508     0.61498
      H   16    0.20658      0.00000     0.79029    0.00313     0.79342
      H   17    0.22694      0.00000     0.76961    0.00345     0.77306
      H   18    0.24652      0.00000     0.74933    0.00415     0.75348
      H   19    0.23586      0.00000     0.75896    0.00518     0.76414
      H   20    0.14517      0.00000     0.81313    0.04169     0.85483
      H   21    0.26569      0.00000     0.72048    0.01382     0.73431
      H   22    0.07461      0.00000     0.81833    0.10706     0.92539
      H   23    0.25290      0.00000     0.73460    0.01250     0.74710
      H   24    0.11177      0.00000     0.83422    0.05401     0.88823
      H   25    0.23771      0.00000     0.75964    0.00266     0.76229
      H   26    0.23696      0.00000     0.75878    0.00426     0.76304
      H   27    0.22966      0.00000     0.76330    0.00703     0.77034
 =======================================================================
   * Total *   -0.00000     17.99445    55.59915    0.40639    74.00000

 1\1\GINC-CN33\SP\RB3LYP TD-FC\6-31G(d,p)\C7H18N2\QDUEZ\11-Jul-2024\0\\
 # TD(NStates=10, Root=1) B3LYP/6-31G** SCRF=(Solvent=water) volume pop
 =NPA density=current Geom=AllCheck Guess=Read\\BEPGHZIEOVULBU-UHFFFAOY
 SA-N_conf_0\\0,1\C,0,3.8176603307,-0.2392217929,-1.5958351966\C,0,3.38
 57471703,0.8351840817,-0.5863162198\N,0,1.9428544963,1.0266062124,-0.4
 026180466\C,0,1.2323964837,-0.1292471531,0.1515759022\C,0,-0.240120247
 4,0.2040392567,0.4047041402\C,0,-1.016324243,-0.9842055267,0.982025386
 \N,0,-2.3962720634,-0.6569740466,1.3613622031\C,0,-3.3482481028,-0.528

 Normal termination of Gaussian 16 at Thu Jul 11 18:47:54 2024.
