 Gaussian 16, Revision A.03,

 -------------------------------------------------------
 # opt=CalcFc B3LYP/6-31G** SCRF=(Solvent=water) scf=xqc
 -------------------------------------------------------

 ----------------------------------
 BEPGHZIEOVULBU-UHFFFAOYSA-N_conf_3
 ----------------------------------
 Symbolic Z-matrix:
 Charge =  0 Multiplicity = 1

 SCF Done:  E(RB3LYP) =  -387.103108628     A.U. after   11 cycles
 SCF Done:  E(RB3LYP) =  -387.105177763     A.U. after    9 cycles
 SCF Done:  E(RB3LYP) =  -387.105289930     A.U. after    9 cycles
 SCF Done:  E(RB3LYP) =  -387.105279537     A.U. after    9 cycles
 SCF Done:  E(RB3LYP) =  -387.105290038     A.U. after    8 cycles
 SCF Done:  E(RB3LYP) =  -387.105291397     A.U. after    7 cycles
 Optimization completed.
    -- Stationary point found.
 Normal termination of Gaussian 16 at Thu Jul 11 17:50:40 2024.

 ----------------------------------------------------------------------
 # freq B3LYP/6-31G** SCRF=(Solvent=water) volume NMR pop=NPA density=c
 urrent Geom=AllCheck Guess=Read
 ----------------------------------------------------------------------

 Structure from the checkpoint file:  "BEPGHZIEOVULBU-UHFFFAOYSA-N_conf_3_1.chk"
 ----------------------------------
 BEPGHZIEOVULBU-UHFFFAOYSA-N_conf_3
 ----------------------------------
 Charge =  0 Multiplicity = 1

 SCF Done:  E(RB3LYP) =  -387.105291397     A.U. after    1 cycles

      1  C    Isotropic =   176.7291   Anisotropy =    21.9758

      2  C    Isotropic =   146.0232   Anisotropy =    45.3132

      3  N    Isotropic =   210.5432   Anisotropy =    56.8781

      4  C    Isotropic =   144.6967   Anisotropy =    35.3223

      5  C    Isotropic =   159.7284   Anisotropy =    21.4459

      6  C    Isotropic =   141.0929   Anisotropy =    48.0924

      7  N    Isotropic =   209.3271   Anisotropy =    42.8135

      8  C    Isotropic =   147.0096   Anisotropy =    41.0120

      9  C    Isotropic =   175.2764   Anisotropy =    25.6525

     10  H    Isotropic =    30.8971   Anisotropy =    10.2354

     11  H    Isotropic =    30.9696   Anisotropy =     8.0807

     12  H    Isotropic =    30.4939   Anisotropy =     6.4712

     13  H    Isotropic =    29.0977   Anisotropy =     7.5593

     14  H    Isotropic =    28.9356   Anisotropy =     8.5715

     15  H    Isotropic =    31.3035   Anisotropy =    11.6944

     16  H    Isotropic =    29.1035   Anisotropy =     4.2076

     17  H    Isotropic =    29.2636   Anisotropy =     7.5587

     18  H    Isotropic =    29.9272   Anisotropy =     6.5074

     19  H    Isotropic =    30.4903   Anisotropy =     5.6243

     20  H    Isotropic =    29.3003   Anisotropy =     5.1990

     21  H    Isotropic =    28.4518   Anisotropy =     7.9653

     22  H    Isotropic =    31.2028   Anisotropy =    12.1347

     23  H    Isotropic =    29.3010   Anisotropy =     6.9863

     24  H    Isotropic =    29.0634   Anisotropy =     5.0548

     25  H    Isotropic =    30.8481   Anisotropy =     8.2240

     26  H    Isotropic =    30.6617   Anisotropy =     9.9638

     27  H    Isotropic =    30.6791   Anisotropy =     8.2483

  Exact polarizability: 132.106  -0.922 107.224   1.199  -0.829 108.546
 Approx polarizability: 126.123  -0.612 115.534   0.810  -1.171 120.926

                      1                      2                      3
                      A                      A                      A
 Frequencies --     33.0927                38.4264                74.8785
 Red. masses --      3.1776                 2.5292                 2.1475
 Frc consts  --      0.0021                 0.0022                 0.0071
 IR Inten    --      0.6904                 1.1037                 0.3961

                      4                      5                      6
                      A                      A                      A
 Frequencies --     81.8430               116.9126               153.7666
 Red. masses --      2.2348                 2.2505                 2.6930
 Frc consts  --      0.0088                 0.0181                 0.0375
 IR Inten    --      2.2759                 2.1265                 2.0569

                      7                      8                      9
                      A                      A                      A
 Frequencies --    213.7384               251.4436               258.0764
 Red. masses --      1.3827                 1.3740                 1.5395
 Frc consts  --      0.0372                 0.0512                 0.0604
 IR Inten    --      0.0701                 1.4025                 0.1705

                     10                     11                     12
                      A                      A                      A
 Frequencies --    283.4506               310.0179               322.6758
 Red. masses --      2.2201                 2.2087                 2.1088
 Frc consts  --      0.1051                 0.1251                 0.1294
 IR Inten    --      1.7356                 9.1381                 7.8843

                     13                     14                     15
                      A                      A                      A
 Frequencies --    399.1652               488.0454               588.0360
 Red. masses --      2.5694                 2.8050                 2.5809
 Frc consts  --      0.2412                 0.3936                 0.5258
 IR Inten    --      5.9507                 0.6766                24.5329

                     16                     17                     18
                      A                      A                      A
 Frequencies --    752.3142               783.6140               801.3377
 Red. masses --      1.4162                 1.4387                 1.1885
 Frc consts  --      0.4722                 0.5205                 0.4496
 IR Inten    --     36.3990               167.4717                14.4058

                     19                     20                     21
                      A                      A                      A
 Frequencies --    814.4235               825.1889               860.7348
 Red. masses --      1.1645                 1.2082                 1.9442
 Frc consts  --      0.4551                 0.4847                 0.8486
 IR Inten    --     44.2895                 2.3793                 1.5039

                     22                     23                     24
                      A                      A                      A
 Frequencies --    896.4940               921.4104               962.2114
 Red. masses --      2.1216                 1.4585                 1.5991
 Frc consts  --      1.0046                 0.7296                 0.8723
 IR Inten    --      0.6741                21.3884                 7.6655

                     25                     26                     27
                      A                      A                      A
 Frequencies --   1029.3004              1052.4828              1062.7489
 Red. masses --      2.7518                 2.3845                 2.0194
 Frc consts  --      1.7177                 1.5562                 1.3438
 IR Inten    --      7.9655                10.9629                 0.2620

                     28                     29                     30
                      A                      A                      A
 Frequencies --   1071.6683              1119.5829              1144.5096
 Red. masses --      1.6942                 1.7205                 2.0356
 Frc consts  --      1.1464                 1.2706                 1.5710
 IR Inten    --      9.4447                14.7447                 5.0110

                     31                     32                     33
                      A                      A                      A
 Frequencies --   1150.3485              1151.3364              1174.4609
 Red. masses --      2.5061                 2.9844                 1.5735
 Frc consts  --      1.9539                 2.3309                 1.2787
 IR Inten    --     35.7631                72.1260                17.8146

                     34                     35                     36
                      A                      A                      A
 Frequencies --   1206.9931              1241.6105              1280.2694
 Red. masses --      2.1332                 1.3430                 1.2863
 Frc consts  --      1.8310                 1.2198                 1.2422
 IR Inten    --     35.5296                 7.8017                26.1120

                     37                     38                     39
                      A                      A                      A
 Frequencies --   1297.7491              1323.0183              1332.0052
 Red. masses --      1.1413                 1.1461                 1.1191
 Frc consts  --      1.1325                 1.1820                 1.1699
 IR Inten    --     16.3113                 3.6953                15.9700

                     40                     41                     42
                      A                      A                      A
 Frequencies --   1346.2669              1387.9921              1396.7638
 Red. masses --      1.3360                 1.2850                 1.3017
 Frc consts  --      1.4267                 1.4586                 1.4963
 IR Inten    --     21.7625                 7.4199                12.6670

                     43                     44                     45
                      A                      A                      A
 Frequencies --   1401.5338              1417.3467              1419.7158
 Red. masses --      1.3271                 1.3384                 1.3451
 Frc consts  --      1.5359                 1.5841                 1.5974
 IR Inten    --      8.2269                 6.6700                21.1686

                     46                     47                     48
                      A                      A                      A
 Frequencies --   1422.9956              1484.6145              1489.4346
 Red. masses --      1.3710                 1.1342                 1.1169
 Frc consts  --      1.6356                 1.4729                 1.4598
 IR Inten    --     27.1109                 0.4953                 8.8330

                     49                     50                     51
                      A                      A                      A
 Frequencies --   1493.1232              1498.2065              1501.0846
 Red. masses --      1.0506                 1.0545                 1.0402
 Frc consts  --      1.3800                 1.3946                 1.3810
 IR Inten    --      2.7725                 7.0666                 7.3871

                     52                     53                     54
                      A                      A                      A
 Frequencies --   1503.1193              1508.0256              1515.0830
 Red. masses --      1.1620                 1.1590                 1.0971
 Frc consts  --      1.5468                 1.5530                 1.4838
 IR Inten    --      3.6656                15.7131                 1.8733

                     55                     56                     57
                      A                      A                      A
 Frequencies --   1518.6396              1525.8190              1533.9160
 Red. masses --      1.1050                 1.0925                 1.0942
 Frc consts  --      1.5015                 1.4985                 1.5169
 IR Inten    --      2.9490                 7.2389                 3.1527

                     58                     59                     60
                      A                      A                      A
 Frequencies --   2920.6544              2927.0908              2930.2822
 Red. masses --      1.0730                 1.0739                 1.0741
 Frc consts  --      5.3928                 5.4210                 5.4340
 IR Inten    --    119.0630               162.6567                97.9231

                     61                     62                     63
                      A                      A                      A
 Frequencies --   2932.2407              3028.9211              3038.9470
 Red. masses --      1.0727                 1.0638                 1.0374
 Frc consts  --      5.4343                 5.7504                 5.6445
 IR Inten    --    195.0690                40.8493                33.5545

                     64                     65                     66
                      A                      A                      A
 Frequencies --   3043.7729              3051.8790              3056.6709
 Red. masses --      1.0409                 1.0807                 1.0858
 Frc consts  --      5.6818                 5.9306                 5.9772
 IR Inten    --      5.1915                56.6579                74.5976

                     67                     68                     69
                      A                      A                      A
 Frequencies --   3064.7552              3073.9609              3096.4264
 Red. masses --      1.0887                 1.0957                 1.0909
 Frc consts  --      6.0249                 6.1003                 6.1623
 IR Inten    --     45.1249                38.5231                76.5790

                     70                     71                     72
                      A                      A                      A
 Frequencies --   3106.3795              3115.0772              3119.0617
 Red. masses --      1.1009                 1.1017                 1.1034
 Frc consts  --      6.2590                 6.2988                 6.3245
 IR Inten    --     73.1419                67.3500                60.7041

                     73                     74                     75
                      A                      A                      A
 Frequencies --   3121.6279              3500.2721              3500.7564
 Red. masses --      1.1030                 1.0743                 1.0744
 Frc consts  --      6.3324                 7.7548                 7.7576
 IR Inten    --     49.2290                 0.5938                 1.1485

 - Thermochemistry -
 -------------------
 Temperature   298.150 Kelvin.  Pressure   1.00000 Atm.
 Atom     1 has atomic number  6 and mass  12.00000

 Molecular mass:   130.14700 amu.
 Principal axes and moments of inertia in atomic units:
                           1         2         3
     Eigenvalues --   342.112423935.347393999.28545
           X            1.00000  -0.00169  -0.00066
           Y            0.00170   0.99988   0.01509
           Z            0.00064  -0.01510   0.99989
 This molecule is an asymmetric top.
 Rotational symmetry number  1.
 Rotational temperatures (Kelvin)      0.25317     0.02201     0.02166
 Rotational constants (GHZ):           5.27529     0.45860     0.45127
 Zero-point vibrational energy     663101.1 (Joules/Mol)
                                  158.48496 (Kcal/Mol)
 Warning -- explicit consideration of  15 degrees of freedom as
           vibrations may cause significant error
 Vibrational temperatures:     47.61    55.29   107.73   117.75   168.21
          (Kelvin)            221.24   307.52   361.77   371.31   407.82
                              446.05   464.26   574.31   702.19   846.05
                             1082.41  1127.45  1152.95  1171.77  1187.26
                             1238.41  1289.85  1325.70  1384.41  1480.93
                             1514.29  1529.06  1541.89  1610.83  1646.69
                             1655.09  1656.52  1689.79  1736.59  1786.40
                             1842.02  1867.17  1903.53  1916.46  1936.98
                             1997.01  2009.63  2016.49  2039.25  2042.65
                             2047.37  2136.03  2142.96  2148.27  2155.59
                             2159.73  2162.65  2169.71  2179.87  2184.98
                             2195.31  2206.96  4202.17  4211.43  4216.02
                             4218.84  4357.94  4372.37  4379.31  4390.97
                             4397.87  4409.50  4422.74  4455.07  4469.39
                             4481.90  4487.63  4491.33  5036.11  5036.81

 Zero-point correction=                           0.252562 (Hartree/Particle)
 Thermal correction to Energy=                    0.264481
 Thermal correction to Enthalpy=                  0.265425
 Thermal correction to Gibbs Free Energy=         0.213406
 Sum of electronic and zero-point Energies=           -386.852730
 Sum of electronic and thermal Energies=              -386.840810
 Sum of electronic and thermal Enthalpies=            -386.839866
 Sum of electronic and thermal Free Energies=         -386.891886

                     E (Thermal)             CV                S
                      KCal/Mol        Cal/Mol-Kelvin    Cal/Mol-Kelvin
 Total                  165.964             42.069            109.484
 Electronic               0.000              0.000              0.000
 Translational            0.889              2.981             40.503
 Rotational               0.889              2.981             30.066
 Vibrational            164.187             36.108             38.914
 Vibration     1          0.594              1.983              5.635
 Vibration     2          0.594              1.982              5.339
 Vibration     3          0.599              1.966              4.021
 Vibration     4          0.600              1.962              3.846
 Vibration     5          0.608              1.935              3.151
 Vibration     6          0.619              1.898              2.625
 Vibration     7          0.644              1.820              2.012
 Vibration     8          0.663              1.760              1.720
 Vibration     9          0.667              1.749              1.675
 Vibration    10          0.682              1.704              1.513
 Vibration    11          0.699              1.655              1.362
 Vibration    12          0.708              1.630              1.297
 Vibration    13          0.765              1.472              0.966
 Vibration    14          0.844              1.277              0.689
 Vibration    15          0.945              1.057              0.471

 Optimization completed.
    -- Stationary point found.
 Normal termination of Gaussian 16 at Thu Jul 11 18:14:34 2024.
 Gaussian 16:  EM64L-G16RevA.03 25-Dec-2016

 ----------------------------------------------------------------------
 # TD(NStates=10, Root=1) B3LYP/6-31G** SCRF=(Solvent=water) volume pop
 =NPA density=current Geom=AllCheck Guess=Read
 ----------------------------------------------------------------------

 Structure from the checkpoint file:  "BEPGHZIEOVULBU-UHFFFAOYSA-N_conf_3_2.chk"
 ----------------------------------
 BEPGHZIEOVULBU-UHFFFAOYSA-N_conf_3
 ----------------------------------
 Charge =  0 Multiplicity = 1

                         Standard orientation:
 ---------------------------------------------------------------------
 Center     Atomic      Atomic             Coordinates (Angstroms)
 Number     Number       Type             X           Y           Z
 ---------------------------------------------------------------------
      1          6           0       -3.942414    1.031000    0.447087
      2          6           0       -3.558355   -0.211631   -0.358430
      3          7           0       -2.115700   -0.289770   -0.619989
      4          6           0       -1.325771   -0.755509    0.524259
      5          6           0        0.158822   -0.883715    0.170418
      6          6           0        0.810992    0.452381   -0.205745
      7          7           0        2.210685    0.300738   -0.619481
      8          6           0        3.152030    0.139525    0.492712
      9          6           0        4.592296    0.095516   -0.011683
     10          1           0       -5.028835    1.083002    0.572912
     11          1           0       -3.609543    1.938946   -0.065908
     12          1           0       -3.495850    1.024085    1.446445
     13          1           0       -3.934985   -1.112602    0.161538
     14          1           0       -4.065526   -0.176394   -1.329232
     15          1           0       -1.967887   -0.946933   -1.383665
     16          1           0       -1.439726   -0.033321    1.342433
     17          1           0       -1.691906   -1.723748    0.914665
     18          1           0        0.676277   -1.330605    1.027614
     19          1           0        0.281916   -1.585527   -0.665978
     20          1           0        0.699942    1.154389    0.643543
     21          1           0        0.255447    0.884563   -1.043064
     22          1           0        2.479617    1.138373   -1.132069
     23          1           0        3.046959    0.942348    1.247326
     24          1           0        2.921467   -0.798728    1.011177
     25          1           0        4.861429    1.030911   -0.516391
     26          1           0        5.291198   -0.047568    0.818119
     27          1           0        4.729518   -0.723362   -0.724885
 ---------------------------------------------------------------------

 SCF Done:  E(RB3LYP) =  -387.105291397     A.U. after    1 cycles

 Excitation energies and oscillator strengths:

 Excited State   1:      Singlet-A      7.1880 eV  172.49 nm  f=0.0184  <S**2>=0.000
      36 -> 38         0.45039
      36 -> 40         0.10454
      37 -> 38         0.51340
      37 -> 40         0.10238
 This state for optimization and/or second-order correction.
 Total Energy, E(TD-HF/TD-DFT) =  -386.841136076
 Copying the excited state density for this state as the 1-particle RhoCI density.

 Excited State   2:      Singlet-A      7.2730 eV  170.47 nm  f=0.0178  <S**2>=0.000
      36 -> 38        -0.10877
      36 -> 39        -0.46029
      37 -> 39         0.49952

 Excited State   3:      Singlet-A      7.6658 eV  161.74 nm  f=0.0145  <S**2>=0.000
      36 -> 38         0.47914
      36 -> 39        -0.10631
      36 -> 41         0.12359
      37 -> 38        -0.43103
      37 -> 39         0.12015
      37 -> 40         0.12642
      37 -> 41        -0.12878

 Excited State   4:      Singlet-A      7.8609 eV  157.72 nm  f=0.0097  <S**2>=0.000
      36 -> 39         0.46454
      36 -> 40         0.15774
      36 -> 42        -0.11866
      37 -> 39         0.43146
      37 -> 40         0.20831
      37 -> 42        -0.10034

 Excited State   5:      Singlet-A      7.8738 eV  157.46 nm  f=0.0501  <S**2>=0.000
      36 -> 38        -0.13263
      36 -> 39        -0.17091
      36 -> 40         0.34826
      36 -> 41         0.21556
      37 -> 39        -0.15511
      37 -> 40         0.43557
      37 -> 41         0.23359

 Excited State   6:      Singlet-A      8.0007 eV  154.97 nm  f=0.0262  <S**2>=0.000
      36 -> 38         0.13649
      36 -> 40         0.38163
      36 -> 41        -0.13192
      36 -> 42         0.20289
      37 -> 38        -0.13464
      37 -> 40        -0.33263
      37 -> 41         0.25791
      37 -> 42        -0.23094

 Excited State   7:      Singlet-A      8.1263 eV  152.57 nm  f=0.0495  <S**2>=0.000
      36 -> 40        -0.23720
      36 -> 41         0.42418
      37 -> 40        -0.15281
      37 -> 41         0.43611
      37 -> 43        -0.11534

 Excited State   8:      Singlet-A      8.3011 eV  149.36 nm  f=0.0819  <S**2>=0.000
      36 -> 40         0.30020
      36 -> 41         0.17095
      36 -> 42        -0.34474
      37 -> 40        -0.25762
      37 -> 41        -0.15343
      37 -> 42         0.38525

 Excited State   9:      Singlet-A      8.3807 eV  147.94 nm  f=0.0187  <S**2>=0.000
      36 -> 38        -0.10733
      36 -> 40         0.10454
      36 -> 41         0.43573
      36 -> 42         0.22706
      37 -> 40        -0.10348
      37 -> 41        -0.35838
      37 -> 42        -0.26529

 Excited State  10:      Singlet-A      8.6082 eV  144.03 nm  f=0.0430  <S**2>=0.000
      36 -> 39         0.10521
      36 -> 42         0.48586
      36 -> 44        -0.12057
      37 -> 42         0.41970
      37 -> 44        -0.14639

 The electronic state is 1-A.
 Alpha  occ. eigenvalues --  -14.31217 -14.31105 -10.20263 -10.20115 -10.20055
 Alpha  occ. eigenvalues --  -10.19721 -10.17499 -10.17235 -10.16986  -0.89810
 Alpha  occ. eigenvalues --   -0.89073  -0.76907  -0.73712  -0.71256  -0.64632
 Alpha  occ. eigenvalues --   -0.60844  -0.58748  -0.56784  -0.48503  -0.47130
 Alpha  occ. eigenvalues --   -0.46186  -0.45387  -0.44383  -0.42605  -0.41260
 Alpha  occ. eigenvalues --   -0.39634  -0.38051  -0.36750  -0.35893  -0.35625
 Alpha  occ. eigenvalues --   -0.34601  -0.33671  -0.33144  -0.32630  -0.31586
 Alpha  occ. eigenvalues --   -0.22085  -0.21880
 Alpha virt. eigenvalues --    0.08909   0.09374   0.11036   0.11217   0.12194
 Alpha virt. eigenvalues --    0.14022   0.14744   0.15850   0.16669   0.16761
 Alpha virt. eigenvalues --    0.17517   0.17871   0.18102   0.18713   0.19443

 Mulliken charges:
               1
     1  C   -0.308997
     2  C   -0.020794
     3  N   -0.102295
     4  C   -0.054541
     5  C   -0.171469
     6  C   -0.033955
     7  N   -0.526915
     8  C   -0.031076
     9  C   -0.335066
    10  H    0.078202
    11  H    0.118164
    12  H    0.107509
    13  H    0.114952
    14  H    0.002116
    15  H   -0.099957
    16  H    0.113902
    17  H    0.099856
    18  H    0.086619
    19  H    0.046776
    20  H    0.074055
    21  H    0.090513
    22  H    0.244993
    23  H    0.076955
    24  H    0.105569
    25  H    0.107017
    26  H    0.107741
    27  H    0.110126
 Sum of Mulliken charges =  -0.00000

 Dipole moment (field-independent basis, Debye):
    X=             -0.2383    Y=              1.8055    Z=              2.4751  Tot=              3.0729
 Quadrupole moment (field-independent basis, Debye-Ang):
   XX=            -59.6061   YY=            -61.3703   ZZ=            -64.1763
   XY=              2.1332   XZ=             -2.2655   YZ=             -4.5272

 Summary of Natural Population Analysis:

                                       Natural Population
                Natural  -----------------------------------------------
    Atom  No    Charge         Core      Valence    Rydberg      Total
 -----------------------------------------------------------------------
      C    1   -0.70261      1.99944     4.69341    0.00975     6.70261
      C    2   -0.33923      1.99935     4.32190    0.01797     6.33923
      N    3   -0.21573      1.99933     5.19992    0.01647     7.21573
      C    4   -0.34417      1.99930     4.32523    0.01964     6.34417
      C    5   -0.49927      1.99932     4.48408    0.01587     6.49927
      C    6   -0.26785      1.99934     4.25098    0.01752     6.26785
      N    7   -0.71629      1.99955     5.70110    0.01563     7.71629
      C    8   -0.26352      1.99938     4.25075    0.01339     6.26352
      C    9   -0.69750      1.99946     4.69060    0.00744     6.69750
      H   10    0.20854      0.00000     0.77849    0.01297     0.79146
      H   11    0.23940      0.00000     0.75662    0.00398     0.76060
      H   12    0.22942      0.00000     0.76352    0.00705     0.77058
      H   13    0.24810      0.00000     0.72748    0.02442     0.75190
      H   14    0.15863      0.00000     0.80012    0.04125     0.84137
      H   15    0.10976      0.00000     0.78355    0.10670     0.89024
      H   16    0.23692      0.00000     0.74765    0.01543     0.76308
      H   17    0.24697      0.00000     0.72243    0.03059     0.75303
      H   18    0.22577      0.00000     0.76676    0.00747     0.77423
      H   19    0.20134      0.00000     0.77397    0.02470     0.79866
      H   20    0.19954      0.00000     0.79545    0.00501     0.80046
      H   21    0.22683      0.00000     0.76774    0.00543     0.77317
      H   22    0.38956      0.00000     0.60623    0.00421     0.61044
      H   23    0.19962      0.00000     0.79682    0.00355     0.80038
      H   24    0.22382      0.00000     0.77360    0.00258     0.77618
      H   25    0.22851      0.00000     0.76957    0.00192     0.77149
      H   26    0.23994      0.00000     0.75863    0.00143     0.76006
      H   27    0.23350      0.00000     0.76435    0.00215     0.76650
 =======================================================================
   * Total *    0.00000     17.99449    55.57096    0.43455    74.00000

 1\1\GINC-CN33\SP\RB3LYP TD-FC\6-31G(d,p)\C7H18N2\QDUEZ\11-Jul-2024\0\\
 # TD(NStates=10, Root=1) B3LYP/6-31G** SCRF=(Solvent=water) volume pop
 =NPA density=current Geom=AllCheck Guess=Read\\BEPGHZIEOVULBU-UHFFFAOY
 SA-N_conf_3\\0,1\C,0,3.9800850043,-0.7892410583,0.5711439032\C,0,3.527
 8499092,0.1157654417,-0.5764352676\N,0,2.0735215346,0.0879710321,-0.77
 62551835\C,0,1.3224320678,0.8949436982,0.1906285892\C,0,-0.1791743814,
 0.883682171,-0.1105464977\C,0,-0.8112086423,-0.5088733049,0.0047855784
 \N,0,-2.2312867351,-0.5167391945,-0.3648467461\C,0,-3.1268406196,-0.00

 Normal termination of Gaussian 16 at Thu Jul 11 18:42:19 2024.
