 Gaussian 16, Revision A.03,

 -------------------------------------------------------
 # opt=CalcFc B3LYP/6-31G** SCRF=(Solvent=water) scf=xqc
 -------------------------------------------------------

 ----------------------------------
 BEPGHZIEOVULBU-UHFFFAOYSA-N_conf_1
 ----------------------------------
 Symbolic Z-matrix:
 Charge =  0 Multiplicity = 1

 SCF Done:  E(RB3LYP) =  -387.100710666     A.U. after   11 cycles
 SCF Done:  E(RB3LYP) =  -387.103137567     A.U. after    9 cycles
 SCF Done:  E(RB3LYP) =  -387.103319991     A.U. after    9 cycles
 SCF Done:  E(RB3LYP) =  -387.103337117     A.U. after    8 cycles
 SCF Done:  E(RB3LYP) =  -387.103341858     A.U. after    8 cycles
 SCF Done:  E(RB3LYP) =  -387.103342749     A.U. after    7 cycles
 SCF Done:  E(RB3LYP) =  -387.103342800     A.U. after    7 cycles
 SCF Done:  E(RB3LYP) =  -387.103342806     A.U. after    5 cycles
 Optimization completed.
    -- Stationary point found.
 Normal termination of Gaussian 16 at Thu Jul 11 17:56:51 2024.

 ----------------------------------------------------------------------
 # freq B3LYP/6-31G** SCRF=(Solvent=water) volume NMR pop=NPA density=c
 urrent Geom=AllCheck Guess=Read
 ----------------------------------------------------------------------

 Structure from the checkpoint file:  "BEPGHZIEOVULBU-UHFFFAOYSA-N_conf_1_1.chk"
 ----------------------------------
 BEPGHZIEOVULBU-UHFFFAOYSA-N_conf_1
 ----------------------------------
 Charge =  0 Multiplicity = 1

 SCF Done:  E(RB3LYP) =  -387.103342806     A.U. after    1 cycles

      1  C    Isotropic =   177.4490   Anisotropy =    22.4039

      2  C    Isotropic =   151.7439   Anisotropy =    37.2532

      3  N    Isotropic =   215.8562   Anisotropy =    50.7709

      4  C    Isotropic =   148.0127   Anisotropy =    40.4480

      5  C    Isotropic =   162.9140   Anisotropy =    31.3133

      6  C    Isotropic =   141.9056   Anisotropy =    46.4358

      7  N    Isotropic =   209.7761   Anisotropy =    42.8353

      8  C    Isotropic =   146.7897   Anisotropy =    41.0013

      9  C    Isotropic =   175.3161   Anisotropy =    25.6053

     10  H    Isotropic =    31.0313   Anisotropy =     9.2385

     11  H    Isotropic =    30.9467   Anisotropy =     9.9536

     12  H    Isotropic =    30.4561   Anisotropy =     6.2655

     13  H    Isotropic =    28.6409   Anisotropy =     6.0743

     14  H    Isotropic =    29.2717   Anisotropy =     8.5286

     15  H    Isotropic =    31.1514   Anisotropy =    13.1666

     16  H    Isotropic =    29.1438   Anisotropy =     4.0809

     17  H    Isotropic =    29.3111   Anisotropy =     7.1639

     18  H    Isotropic =    29.2712   Anisotropy =     6.5797

     19  H    Isotropic =    31.0180   Anisotropy =     5.8111

     20  H    Isotropic =    29.1263   Anisotropy =     6.0729

     21  H    Isotropic =    29.3335   Anisotropy =     5.1344

     22  H    Isotropic =    31.2227   Anisotropy =    12.5758

     23  H    Isotropic =    29.2859   Anisotropy =     6.8179

     24  H    Isotropic =    29.0076   Anisotropy =     5.1237

     25  H    Isotropic =    30.6663   Anisotropy =     8.2265

     26  H    Isotropic =    30.6513   Anisotropy =     9.8594

     27  H    Isotropic =    30.8459   Anisotropy =     8.3765

  Exact polarizability: 124.311   1.785 114.365  -1.089  -0.108 106.618
 Approx polarizability: 122.212   1.935 123.143  -1.706   0.722 116.552

                      1                      2                      3
                      A                      A                      A
 Frequencies --     25.6144                51.9472                63.2831
 Red. masses --      2.4945                 2.1630                 2.4817
 Frc consts  --      0.0010                 0.0034                 0.0059
 IR Inten    --      0.8419                 1.9257                 0.0664

                      4                      5                      6
                      A                      A                      A
 Frequencies --     72.1067               111.3077               156.9068
 Red. masses --      2.2491                 2.0593                 1.8641
 Frc consts  --      0.0069                 0.0150                 0.0270
 IR Inten    --      0.1304                 0.2801                 2.8469

                      7                      8                      9
                      A                      A                      A
 Frequencies --    206.0068               247.5885               260.2426
 Red. masses --      2.1882                 1.5310                 1.1952
 Frc consts  --      0.0547                 0.0553                 0.0477
 IR Inten    --      7.0567                 1.0079                 1.4388

                     10                     11                     12
                      A                      A                      A
 Frequencies --    279.0362               291.3239               357.3211
 Red. masses --      2.4143                 2.1354                 2.6143
 Frc consts  --      0.1108                 0.1068                 0.1967
 IR Inten    --      1.7637                 0.4845                 1.7836

                     13                     14                     15
                      A                      A                      A
 Frequencies --    443.2809               490.3669               531.8287
 Red. masses --      2.1121                 2.5765                 3.1025
 Frc consts  --      0.2445                 0.3650                 0.5170
 IR Inten    --     23.4972                 9.6825                12.8617

                     16                     17                     18
                      A                      A                      A
 Frequencies --    738.1990               771.4451               785.6068
 Red. masses --      1.1949                 1.4216                 1.4631
 Frc consts  --      0.3836                 0.4985                 0.5320
 IR Inten    --     56.5376               109.5584               118.7624

                     19                     20                     21
                      A                      A                      A
 Frequencies --    808.7213               821.0887               842.7900
 Red. masses --      1.1401                 1.2314                 1.5474
 Frc consts  --      0.4393                 0.4891                 0.6476
 IR Inten    --     11.3469                 1.1566                16.8679

                     22                     23                     24
                      A                      A                      A
 Frequencies --    895.2351               910.1013               996.1154
 Red. masses --      1.6693                 1.5078                 2.7897
 Frc consts  --      0.7882                 0.7358                 1.6309
 IR Inten    --     12.6647                 1.9784                 9.8249

                     25                     26                     27
                      A                      A                      A
 Frequencies --   1023.3915              1036.2393              1051.4270
 Red. masses --      2.1871                 2.7176                 2.4538
 Frc consts  --      1.3496                 1.7193                 1.5983
 IR Inten    --      4.0284                 9.0765                 1.6809

                     28                     29                     30
                      A                      A                      A
 Frequencies --   1066.5780              1115.4095              1133.6715
 Red. masses --      1.8235                 1.7624                 1.8912
 Frc consts  --      1.2222                 1.2919                 1.4321
 IR Inten    --     12.7017                 1.5610                17.0149

                     31                     32                     33
                      A                      A                      A
 Frequencies --   1141.9209              1166.6148              1178.3956
 Red. masses --      3.3319                 2.1586                 1.8139
 Frc consts  --      2.5599                 1.7309                 1.4841
 IR Inten    --     75.4443                28.4601                37.0095

                     34                     35                     36
                      A                      A                      A
 Frequencies --   1207.6075              1248.2477              1293.0065
 Red. masses --      1.9951                 1.3854                 1.2448
 Frc consts  --      1.7142                 1.2718                 1.2262
 IR Inten    --     11.9030                18.6745                 4.7415

                     37                     38                     39
                      A                      A                      A
 Frequencies --   1301.2856              1318.4421              1331.8896
 Red. masses --      1.2286                 1.1335                 1.1457
 Frc consts  --      1.2257                 1.1609                 1.1974
 IR Inten    --      7.9966                 0.9567                10.2414

                     40                     41                     42
                      A                      A                      A
 Frequencies --   1340.9616              1389.6381              1392.3715
 Red. masses --      1.0958                 1.2747                 1.2830
 Frc consts  --      1.1610                 1.4503                 1.4655
 IR Inten    --      8.1512                 4.9699                21.1951

                     43                     44                     45
                      A                      A                      A
 Frequencies --   1405.9192              1417.7383              1418.3280
 Red. masses --      1.2913                 1.3654                 1.3266
 Frc consts  --      1.5038                 1.6170                 1.5723
 IR Inten    --      2.1657                31.5884                21.4019

                     46                     47                     48
                      A                      A                      A
 Frequencies --   1423.4973              1484.0847              1488.7708
 Red. masses --      1.3458                 1.0802                 1.1073
 Frc consts  --      1.6067                 1.4018                 1.4460
 IR Inten    --     31.3918                 1.7590                 0.5847

                     49                     50                     51
                      A                      A                      A
 Frequencies --   1493.5932              1497.1930              1501.2679
 Red. masses --      1.0710                 1.0528                 1.0407
 Frc consts  --      1.4077                 1.3904                 1.3819
 IR Inten    --      5.5268                 0.7790                 7.5600

                     52                     53                     54
                      A                      A                      A
 Frequencies --   1503.3801              1505.2205              1509.8229
 Red. masses --      1.0651                 1.2202                 1.1687
 Frc consts  --      1.4183                 1.6289                 1.5697
 IR Inten    --      1.5119                 9.9476                12.2720

                     55                     56                     57
                      A                      A                      A
 Frequencies --   1518.1054              1522.7231              1533.7985
 Red. masses --      1.0984                 1.1014                 1.0942
 Frc consts  --      1.4914                 1.5046                 1.5167
 IR Inten    --      4.4647                 1.3306                 3.4039

                     58                     59                     60
                      A                      A                      A
 Frequencies --   2924.9949              2928.2335              2961.5983
 Red. masses --      1.0722                 1.0737                 1.0719
 Frc consts  --      5.4049                 5.4245                 5.5395
 IR Inten    --     98.5763               174.7427               114.2790

                     61                     62                     63
                      A                      A                      A
 Frequencies --   3023.0396              3033.1516              3039.3544
 Red. masses --      1.0633                 1.0627                 1.0376
 Frc consts  --      5.7253                 5.7606                 5.6471
 IR Inten    --     54.7857                57.8325                33.9444

                     64                     65                     66
                      A                      A                      A
 Frequencies --   3043.4130              3050.6571              3058.1173
 Red. masses --      1.0365                 1.0884                 1.0865
 Frc consts  --      5.6565                 5.9678                 5.9866
 IR Inten    --     27.0314                43.5937                25.6389

                     67                     68                     69
                      A                      A                      A
 Frequencies --   3063.9184              3066.4043              3087.8864
 Red. masses --      1.0915                 1.0930                 1.1032
 Frc consts  --      6.0370                 6.0554                 6.1976
 IR Inten    --     60.9881                14.7456               139.8618

                     70                     71                     72
                      A                      A                      A
 Frequencies --   3107.0248              3113.0663              3118.2574
 Red. masses --      1.1008                 1.1015                 1.1035
 Frc consts  --      6.2612                 6.2897                 6.3220
 IR Inten    --     73.2642                66.0503                63.4081

                     73                     74                     75
                      A                      A                      A
 Frequencies --   3122.1804              3498.5843              3510.7215
 Red. masses --      1.1030                 1.0743                 1.0743
 Frc consts  --      6.3347                 7.7478                 7.8016
 IR Inten    --     48.6670                 1.6836                 0.7285

 - Thermochemistry -
 -------------------
 Temperature   298.150 Kelvin.  Pressure   1.00000 Atm.
 Atom     1 has atomic number  6 and mass  12.00000

 Molecular mass:   130.14700 amu.
 Principal axes and moments of inertia in atomic units:
                           1         2         3
     Eigenvalues --   563.797143507.112873780.38729
           X            1.00000   0.00174   0.00248
           Y           -0.00172   0.99995  -0.00996
           Z           -0.00250   0.00996   0.99995
 This molecule is an asymmetric top.
 Rotational symmetry number  1.
 Warning -- assumption of classical behavior for rotation
           may cause significant error
 Rotational temperatures (Kelvin)      0.15363     0.02470     0.02291
 Rotational constants (GHZ):           3.20105     0.51459     0.47740
 Zero-point vibrational energy     663141.5 (Joules/Mol)
                                  158.49463 (Kcal/Mol)
 Warning -- explicit consideration of  15 degrees of freedom as
           vibrations may cause significant error
 Vibrational temperatures:     36.85    74.74    91.05   103.75   160.15
          (Kelvin)            225.75   296.40   356.22   374.43   401.47
                              419.15   514.11   637.78   705.53   765.18
                             1062.10  1109.94  1130.31  1163.57  1181.36
                             1212.59  1288.04  1309.43  1433.19  1472.43
                             1490.92  1512.77  1534.57  1604.83  1631.10
                             1642.97  1678.50  1695.45  1737.48  1795.95
                             1860.35  1872.26  1896.94  1916.29  1929.34
                             1999.38  2003.31  2022.80  2039.81  2040.66
                             2048.10  2135.27  2142.01  2148.95  2154.13
                             2159.99  2163.03  2165.68  2172.30  2184.22
                             2190.86  2206.79  4208.42  4213.07  4261.08
                             4349.48  4364.03  4372.95  4378.79  4389.22
                             4399.95  4408.30  4411.87  4442.78  4470.32
                             4479.01  4486.48  4492.12  5033.68  5051.15

 Zero-point correction=                           0.252577 (Hartree/Particle)
 Thermal correction to Energy=                    0.264551
 Thermal correction to Enthalpy=                  0.265495
 Thermal correction to Gibbs Free Energy=         0.213028
 Sum of electronic and zero-point Energies=           -386.850766
 Sum of electronic and thermal Energies=              -386.838792
 Sum of electronic and thermal Enthalpies=            -386.837848
 Sum of electronic and thermal Free Energies=         -386.890315

                     E (Thermal)             CV                S
                      KCal/Mol        Cal/Mol-Kelvin    Cal/Mol-Kelvin
 Total                  166.008             42.217            110.426
 Electronic               0.000              0.000              0.000
 Translational            0.889              2.981             40.503
 Rotational               0.889              2.981             30.392
 Vibrational            164.231             36.256             39.530
 Vibration     1          0.593              1.985              6.143
 Vibration     2          0.596              1.977              4.742
 Vibration     3          0.597              1.972              4.352
 Vibration     4          0.598              1.967              4.095
 Vibration     5          0.607              1.940              3.246
 Vibration     6          0.621              1.895              2.587
 Vibration     7          0.640              1.831              2.079
 Vibration     8          0.661              1.767              1.748
 Vibration     9          0.668              1.745              1.660
 Vibration    10          0.679              1.712              1.540
 Vibration    11          0.687              1.690              1.466
 Vibration    12          0.732              1.560              1.134
 Vibration    13          0.803              1.376              0.816
 Vibration    14          0.846              1.271              0.683
 Vibration    15          0.887              1.180              0.583

 Optimization completed.
    -- Stationary point found.
 Normal termination of Gaussian 16 at Thu Jul 11 18:20:19 2024.
 Gaussian 16:  EM64L-G16RevA.03 25-Dec-2016

 ----------------------------------------------------------------------
 # TD(NStates=10, Root=1) B3LYP/6-31G** SCRF=(Solvent=water) volume pop
 =NPA density=current Geom=AllCheck Guess=Read
 ----------------------------------------------------------------------

 Structure from the checkpoint file:  "BEPGHZIEOVULBU-UHFFFAOYSA-N_conf_1_2.chk"
 ----------------------------------
 BEPGHZIEOVULBU-UHFFFAOYSA-N_conf_1
 ----------------------------------
 Charge =  0 Multiplicity = 1

                         Standard orientation:
 ---------------------------------------------------------------------
 Center     Atomic      Atomic             Coordinates (Angstroms)
 Number     Number       Type             X           Y           Z
 ---------------------------------------------------------------------
      1          6           0        3.609097    1.209127    0.712886
      2          6           0        2.948932    0.743629   -0.586453
      3          7           0        2.612558   -0.687527   -0.559981
      4          6           0        1.423388   -1.054012    0.219166
      5          6           0        0.067993   -0.577105   -0.332346
      6          6           0       -1.105768   -1.043001    0.537067
      7          7           0       -2.412460   -0.675710   -0.023711
      8          6           0       -2.786603    0.724264    0.200772
      9          6           0       -4.200332    1.000102   -0.304989
     10          1           0        4.503170    0.614394    0.925353
     11          1           0        3.902022    2.261399    0.635435
     12          1           0        2.932949    1.119941    1.569360
     13          1           0        2.082181    1.391528   -0.803193
     14          1           0        3.653004    0.889156   -1.413539
     15          1           0        2.475375   -1.004632   -1.517126
     16          1           0        1.555180   -0.681789    1.242433
     17          1           0        1.406562   -2.149533    0.296483
     18          1           0        0.062582    0.516330   -0.409395
     19          1           0       -0.069955   -0.967165   -1.349472
     20          1           0       -1.076268   -2.137022    0.612110
     21          1           0       -0.970738   -0.654086    1.564684
     22          1           0       -3.118875   -1.257521    0.422997
     23          1           0       -2.711471    1.009417    1.267481
     24          1           0       -2.078025    1.364720   -0.337529
     25          1           0       -4.283620    0.770721   -1.371933
     26          1           0       -4.468741    2.050322   -0.155105
     27          1           0       -4.936252    0.388460    0.230187
 ---------------------------------------------------------------------

 SCF Done:  E(RB3LYP) =  -387.103342806     A.U. after    1 cycles

 Excitation energies and oscillator strengths:

 Excited State   1:      Singlet-A      6.9819 eV  177.58 nm  f=0.0226  <S**2>=0.000
      36 -> 38         0.19861
      36 -> 39         0.10186
      37 -> 38         0.63061
      37 -> 39         0.16886
      37 -> 40        -0.12377
 This state for optimization and/or second-order correction.
 Total Energy, E(TD-HF/TD-DFT) =  -386.846761957
 Copying the excited state density for this state as the 1-particle RhoCI density.

 Excited State   2:      Singlet-A      7.2249 eV  171.61 nm  f=0.0211  <S**2>=0.000
      36 -> 38         0.26182
      36 -> 39        -0.41315
      36 -> 40        -0.12155
      37 -> 38        -0.15201
      37 -> 39         0.46188

 Excited State   3:      Singlet-A      7.5245 eV  164.77 nm  f=0.0058  <S**2>=0.000
      36 -> 39        -0.30056
      37 -> 38         0.22276
      37 -> 39        -0.16982
      37 -> 40         0.54075
      37 -> 41        -0.12675

 Excited State   4:      Singlet-A      7.6358 eV  162.37 nm  f=0.0131  <S**2>=0.000
      36 -> 38         0.60881
      36 -> 39         0.10310
      36 -> 40         0.14643
      37 -> 38        -0.12090
      37 -> 39        -0.24936

 Excited State   5:      Singlet-A      7.8593 eV  157.75 nm  f=0.0690  <S**2>=0.000
      36 -> 39         0.34524
      36 -> 40        -0.15399
      36 -> 41        -0.15588
      37 -> 39         0.16173
      37 -> 40         0.36420
      37 -> 41         0.39248

 Excited State   6:      Singlet-A      7.9332 eV  156.28 nm  f=0.0101  <S**2>=0.000
      36 -> 39         0.25770
      36 -> 40         0.34157
      36 -> 41         0.15580
      37 -> 39         0.35821
      37 -> 40         0.16556
      37 -> 41        -0.33214
      37 -> 42         0.11240

 Excited State   7:      Singlet-A      8.0978 eV  153.11 nm  f=0.0235  <S**2>=0.000
      36 -> 39        -0.14236
      36 -> 40         0.45022
      36 -> 41         0.22960
      37 -> 41         0.42017
      37 -> 45        -0.10068

 Excited State   8:      Singlet-A      8.2290 eV  150.67 nm  f=0.0459  <S**2>=0.000
      36 -> 40        -0.25289
      36 -> 41         0.54720
      37 -> 40         0.13757
      37 -> 42        -0.27621
      37 -> 43        -0.12200

 Excited State   9:      Singlet-A      8.4070 eV  147.48 nm  f=0.0213  <S**2>=0.000
      36 -> 40        -0.11995
      36 -> 41         0.20937
      37 -> 42         0.60564
      37 -> 43        -0.20195

 Excited State  10:      Singlet-A      8.6872 eV  142.72 nm  f=0.0143  <S**2>=0.000
      36 -> 42         0.63111
      37 -> 43        -0.15092
      37 -> 44        -0.15143

 The electronic state is 1-A.
 Alpha  occ. eigenvalues --  -14.31229 -14.31136 -10.20173 -10.20165 -10.20155
 Alpha  occ. eigenvalues --  -10.20035 -10.17265 -10.17192 -10.16942  -0.89673
 Alpha  occ. eigenvalues --   -0.89025  -0.76745  -0.73771  -0.71434  -0.64615
 Alpha  occ. eigenvalues --   -0.61189  -0.58447  -0.56739  -0.49412  -0.47383
 Alpha  occ. eigenvalues --   -0.46035  -0.45532  -0.44051  -0.42437  -0.40732
 Alpha  occ. eigenvalues --   -0.38996  -0.38094  -0.37043  -0.36183  -0.35234
 Alpha  occ. eigenvalues --   -0.34380  -0.34237  -0.33709  -0.32662  -0.31683
 Alpha  occ. eigenvalues --   -0.22395  -0.21313
 Alpha virt. eigenvalues --    0.08434   0.09284   0.10574   0.11209   0.12642
 Alpha virt. eigenvalues --    0.13910   0.14746   0.15020   0.16014   0.16930
 Alpha virt. eigenvalues --    0.17396   0.17785   0.18405   0.19426   0.19733

 Mulliken charges:
               1
     1  C   -0.280370
     2  C   -0.005034
     3  N   -0.167628
     4  C   -0.037063
     5  C   -0.117769
     6  C   -0.044993
     7  N   -0.518363
     8  C   -0.031100
     9  C   -0.338104
    10  H    0.101119
    11  H    0.065391
    12  H    0.076267
    13  H    0.095625
    14  H   -0.010784
    15  H    0.036747
    16  H    0.090158
    17  H    0.047587
    18  H    0.041555
    19  H    0.042864
    20  H    0.094455
    21  H    0.081719
    22  H    0.257207
    23  H    0.083058
    24  H    0.105044
    25  H    0.112151
    26  H    0.110759
    27  H    0.109502
 Sum of Mulliken charges =  -0.00000

 Dipole moment (field-independent basis, Debye):
    X=             -1.0429    Y=             -0.2650    Z=              1.9555  Tot=              2.2320
 Quadrupole moment (field-independent basis, Debye-Ang):
   XX=            -59.7789   YY=            -61.4001   ZZ=            -64.2526
   XY=             -1.3248   XZ=             -2.0410   YZ=             -2.9248

 Summary of Natural Population Analysis:

                                       Natural Population
                Natural  -----------------------------------------------
    Atom  No    Charge         Core      Valence    Rydberg      Total
 -----------------------------------------------------------------------
      C    1   -0.70459      1.99944     4.69533    0.00982     6.70459
      C    2   -0.32909      1.99932     4.31293    0.01684     6.32909
      N    3   -0.20827      1.99938     5.19649    0.01241     7.20827
      C    4   -0.33706      1.99932     4.31606    0.02168     6.33706
      C    5   -0.48785      1.99927     4.47166    0.01692     6.48785
      C    6   -0.27077      1.99932     4.25427    0.01718     6.27077
      N    7   -0.69019      1.99953     5.67582    0.01484     7.69019
      C    8   -0.26671      1.99938     4.25379    0.01354     6.26671
      C    9   -0.69910      1.99946     4.69204    0.00760     6.69910
      H   10    0.23033      0.00000     0.76219    0.00748     0.76967
      H   11    0.20311      0.00000     0.78171    0.01519     0.79689
      H   12    0.20898      0.00000     0.77385    0.01718     0.79102
      H   13    0.22794      0.00000     0.74200    0.03006     0.77206
      H   14    0.14642      0.00000     0.80940    0.04418     0.85358
      H   15    0.20707      0.00000     0.70227    0.09067     0.79293
      H   16    0.21808      0.00000     0.76038    0.02155     0.78192
      H   17    0.19616      0.00000     0.77335    0.03049     0.80384
      H   18    0.18929      0.00000     0.78265    0.02806     0.81071
      H   19    0.20206      0.00000     0.77059    0.02735     0.79794
      H   20    0.23029      0.00000     0.76290    0.00681     0.76971
      H   21    0.20342      0.00000     0.79064    0.00594     0.79658
      H   22    0.39708      0.00000     0.59904    0.00388     0.60292
      H   23    0.20440      0.00000     0.79192    0.00368     0.79560
      H   24    0.22253      0.00000     0.77327    0.00420     0.77747
      H   25    0.23457      0.00000     0.76338    0.00205     0.76543
      H   26    0.24195      0.00000     0.75680    0.00126     0.75805
      H   27    0.22997      0.00000     0.76843    0.00160     0.77003
 =======================================================================
   * Total *   -0.00000     17.99442    55.53315    0.47242    74.00000

 1\1\GINC-CN33\SP\RB3LYP TD-FC\6-31G(d,p)\C7H18N2\QDUEZ\11-Jul-2024\0\\
 # TD(NStates=10, Root=1) B3LYP/6-31G** SCRF=(Solvent=water) volume pop
 =NPA density=current Geom=AllCheck Guess=Read\\BEPGHZIEOVULBU-UHFFFAOY
 SA-N_conf_1\\0,1\C,0,3.6476296897,1.120372555,0.6197126678\C,0,3.04359
 37076,0.3456536987,-0.5532053421\N,0,2.6391766034,-1.0160795935,-0.173
 4884865\C,0,1.3904163173,-1.1261856097,0.5906964608\C,0,0.0936771528,-
 0.7730708635,-0.1592908458\C,0,-1.1496965678,-0.9553787133,0.719024453
 9\N,0,-2.4024917986,-0.7117949264,-0.0076030967\C,0,-2.722764811,0.707

 Normal termination of Gaussian 16 at Thu Jul 11 18:49:07 2024.
