 Gaussian 16, Revision A.03,

 -------------------------------------------------------
 # opt=CalcFc B3LYP/6-31G** SCRF=(Solvent=water) scf=xqc
 -------------------------------------------------------

 ----------------------------------
 BEPGHZIEOVULBU-UHFFFAOYSA-N_conf_4
 ----------------------------------
 Symbolic Z-matrix:
 Charge =  0 Multiplicity = 1

 SCF Done:  E(RB3LYP) =  -387.101555195     A.U. after   11 cycles
 SCF Done:  E(RB3LYP) =  -387.104881278     A.U. after    9 cycles
 SCF Done:  E(RB3LYP) =  -387.105086395     A.U. after    9 cycles
 SCF Done:  E(RB3LYP) =  -387.105107515     A.U. after    8 cycles
 SCF Done:  E(RB3LYP) =  -387.105113214     A.U. after    7 cycles
 SCF Done:  E(RB3LYP) =  -387.105113272     A.U. after    7 cycles
 Optimization completed.
    -- Stationary point found.
 Normal termination of Gaussian 16 at Thu Jul 11 17:49:24 2024.

 ----------------------------------------------------------------------
 # freq B3LYP/6-31G** SCRF=(Solvent=water) volume NMR pop=NPA density=c
 urrent Geom=AllCheck Guess=Read
 ----------------------------------------------------------------------

 Structure from the checkpoint file:  "BEPGHZIEOVULBU-UHFFFAOYSA-N_conf_4_1.chk"
 ----------------------------------
 BEPGHZIEOVULBU-UHFFFAOYSA-N_conf_4
 ----------------------------------
 Charge =  0 Multiplicity = 1

 SCF Done:  E(RB3LYP) =  -387.105113272     A.U. after    1 cycles

      1  C    Isotropic =   177.0047   Anisotropy =    21.6322

      2  C    Isotropic =   146.2128   Anisotropy =    43.7790

      3  N    Isotropic =   210.9400   Anisotropy =    45.1224

      4  C    Isotropic =   144.8785   Anisotropy =    40.3202

      5  C    Isotropic =   158.4154   Anisotropy =    28.8464

      6  C    Isotropic =   141.8851   Anisotropy =    46.6775

      7  N    Isotropic =   209.6833   Anisotropy =    42.6437

      8  C    Isotropic =   146.7912   Anisotropy =    41.1953

      9  C    Isotropic =   175.3234   Anisotropy =    25.5477

     10  H    Isotropic =    30.9456   Anisotropy =     9.9805

     11  H    Isotropic =    30.1208   Anisotropy =     6.5029

     12  H    Isotropic =    31.1488   Anisotropy =     8.0594

     13  H    Isotropic =    28.8423   Anisotropy =     8.8057

     14  H    Isotropic =    29.2037   Anisotropy =     6.8832

     15  H    Isotropic =    31.7466   Anisotropy =    10.3049

     16  H    Isotropic =    29.7725   Anisotropy =     4.7375

     17  H    Isotropic =    28.6781   Anisotropy =     4.8004

     18  H    Isotropic =    30.5878   Anisotropy =     4.7486

     19  H    Isotropic =    29.8770   Anisotropy =     5.1932

     20  H    Isotropic =    29.0154   Anisotropy =     6.3103

     21  H    Isotropic =    29.1975   Anisotropy =     5.2884

     22  H    Isotropic =    31.2233   Anisotropy =    12.3632

     23  H    Isotropic =    29.2758   Anisotropy =     6.9775

     24  H    Isotropic =    29.0188   Anisotropy =     5.0128

     25  H    Isotropic =    30.8444   Anisotropy =     8.3004

     26  H    Isotropic =    30.6527   Anisotropy =     9.9284

     27  H    Isotropic =    30.6707   Anisotropy =     8.1982

  Exact polarizability: 132.375  -0.002 107.351  -0.607   0.284 106.666
 Approx polarizability: 125.576   0.994 117.669  -0.824   0.122 118.459

                      1                      2                      3
                      A                      A                      A
 Frequencies --     31.2404                56.7620                65.5935
 Red. masses --      2.9898                 3.0108                 1.7831
 Frc consts  --      0.0017                 0.0057                 0.0045
 IR Inten    --      0.7474                 0.9438                 0.9763

                      4                      5                      6
                      A                      A                      A
 Frequencies --    100.4898               107.3451               122.4162
 Red. masses --      1.9262                 2.3028                 3.0257
 Frc consts  --      0.0115                 0.0156                 0.0267
 IR Inten    --      1.2737                 0.3696                 1.1146

                      7                      8                      9
                      A                      A                      A
 Frequencies --    176.1172               239.2110               258.2209
 Red. masses --      1.6859                 1.4581                 1.2771
 Frc consts  --      0.0308                 0.0492                 0.0502
 IR Inten    --      2.3179                 1.1272                 2.6346

                     10                     11                     12
                      A                      A                      A
 Frequencies --    280.2690               295.6755               351.7351
 Red. masses --      2.3225                 2.0820                 2.5690
 Frc consts  --      0.1075                 0.1072                 0.1873
 IR Inten    --      0.9585                 2.8388                 6.5451

                     13                     14                     15
                      A                      A                      A
 Frequencies --    388.6357               481.9879               556.2102
 Red. masses --      2.7173                 2.6639                 2.7311
 Frc consts  --      0.2418                 0.3646                 0.4978
 IR Inten    --      9.1652                 2.3198                16.8927

                     16                     17                     18
                      A                      A                      A
 Frequencies --    764.7851               766.8480               786.4258
 Red. masses --      1.1931                 1.1500                 1.3807
 Frc consts  --      0.4112                 0.3984                 0.5031
 IR Inten    --     50.0306                52.6939                99.5631

                     19                     20                     21
                      A                      A                      A
 Frequencies --    802.1944               823.0758               870.5649
 Red. masses --      1.4314                 1.2135                 1.4522
 Frc consts  --      0.5427                 0.4844                 0.6484
 IR Inten    --     72.6400                 5.5336                 9.8374

                     22                     23                     24
                      A                      A                      A
 Frequencies --    900.7838               911.1706               992.3686
 Red. masses --      1.6018                 1.3966                 2.6693
 Frc consts  --      0.7658                 0.6831                 1.5488
 IR Inten    --     18.3618                 9.2457                10.7622

                     25                     26                     27
                      A                      A                      A
 Frequencies --   1027.9331              1049.1313              1049.9650
 Red. masses --      2.6609                 2.4252                 2.5962
 Frc consts  --      1.6565                 1.5727                 1.6863
 IR Inten    --      7.0106                 3.4593                11.5827

                     28                     29                     30
                      A                      A                      A
 Frequencies --   1080.9658              1101.8881              1132.2973
 Red. masses --      1.7564                 1.7984                 1.8578
 Frc consts  --      1.2092                 1.2865                 1.4034
 IR Inten    --      6.0890                13.6974                 3.2369

                     31                     32                     33
                      A                      A                      A
 Frequencies --   1147.9123              1169.6803              1180.8348
 Red. masses --      3.0415                 2.6316                 1.6824
 Frc consts  --      2.3613                 2.1213                 1.3821
 IR Inten    --     96.0562                42.4708                17.0803

                     34                     35                     36
                      A                      A                      A
 Frequencies --   1204.0162              1252.6348              1289.9414
 Red. masses --      1.9374                 1.4869                 1.2966
 Frc consts  --      1.6548                 1.3746                 1.2712
 IR Inten    --     25.7867                 0.5767                 2.6640

                     37                     38                     39
                      A                      A                      A
 Frequencies --   1298.3654              1316.8624              1328.7810
 Red. masses --      1.1717                 1.1803                 1.1022
 Frc consts  --      1.1638                 1.2060                 1.1466
 IR Inten    --     11.6541                 2.5267                 8.0504

                     40                     41                     42
                      A                      A                      A
 Frequencies --   1346.7710              1386.6892              1389.8843
 Red. masses --      1.1773                 1.2601                 1.2716
 Frc consts  --      1.2581                 1.4277                 1.4473
 IR Inten    --      5.0416                21.7092                 2.4384

                     43                     44                     45
                      A                      A                      A
 Frequencies --   1407.9945              1413.0046              1421.3888
 Red. masses --      1.3331                 1.2596                 1.3260
 Frc consts  --      1.5571                 1.4817                 1.5784
 IR Inten    --     17.2191                 4.5720                 2.2749

                     46                     47                     48
                      A                      A                      A
 Frequencies --   1427.3493              1481.2164              1487.8232
 Red. masses --      1.4784                 1.0662                 1.1105
 Frc consts  --      1.7746                 1.3782                 1.4483
 IR Inten    --     47.1424                 6.7183                 1.5311

                     49                     50                     51
                      A                      A                      A
 Frequencies --   1492.9399              1493.9202              1501.1196
 Red. masses --      1.0936                 1.0849                 1.0411
 Frc consts  --      1.4362                 1.4266                 1.3823
 IR Inten    --      9.1407                 5.1235                 5.9415

                     52                     53                     54
                      A                      A                      A
 Frequencies --   1504.3545              1508.9632              1510.6922
 Red. masses --      1.1093                 1.0997                 1.1568
 Frc consts  --      1.4792                 1.4753                 1.5554
 IR Inten    --      6.1836                 6.4152                 7.6238

                     55                     56                     57
                      A                      A                      A
 Frequencies --   1514.6774              1529.8265              1534.3139
 Red. masses --      1.1091                 1.0929                 1.0946
 Frc consts  --      1.4992                 1.5070                 1.5182
 IR Inten    --     12.1046                 2.6980                 4.6848

                     58                     59                     60
                      A                      A                      A
 Frequencies --   2926.3547              2928.7429              2947.1753
 Red. masses --      1.0724                 1.0736                 1.0709
 Frc consts  --      5.4108                 5.4257                 5.4803
 IR Inten    --     80.8212               188.7886               115.4929

                     61                     62                     63
                      A                      A                      A
 Frequencies --   3026.2539              3029.0372              3035.5201
 Red. masses --      1.0619                 1.0700                 1.0737
 Frc consts  --      5.7301                 5.7840                 5.8288
 IR Inten    --     54.0572                30.2122                83.7534

                     64                     65                     66
                      A                      A                      A
 Frequencies --   3036.4769              3039.3507              3054.2359
 Red. masses --      1.0399                 1.0374                 1.0889
 Frc consts  --      5.6490                 5.6465                 5.9849
 IR Inten    --     36.5078                33.7082                40.6589

                     67                     68                     69
                      A                      A                      A
 Frequencies --   3059.6059              3063.4815              3083.4867
 Red. masses --      1.0860                 1.1041                 1.1015
 Frc consts  --      5.9898                 6.1048                 6.1706
 IR Inten    --     30.0949                41.8173               120.9760

                     70                     71                     72
                      A                      A                      A
 Frequencies --   3103.3629              3107.0199              3115.7675
 Red. masses --      1.1023                 1.1008                 1.1024
 Frc consts  --      6.2547                 6.2611                 6.3053
 IR Inten    --     67.0141                72.5587                72.9909

                     73                     74                     75
                      A                      A                      A
 Frequencies --   3122.2686              3490.1117              3501.2605
 Red. masses --      1.1030                 1.0737                 1.0743
 Frc consts  --      6.3350                 7.7058                 7.7596
 IR Inten    --     48.9486                 1.4869                 1.2246

 - Thermochemistry -
 -------------------
 Temperature   298.150 Kelvin.  Pressure   1.00000 Atm.
 Atom     1 has atomic number  6 and mass  12.00000

 Molecular mass:   130.14700 amu.
 Principal axes and moments of inertia in atomic units:
                           1         2         3
     Eigenvalues --   299.806244264.621214407.93941
           X            0.99997  -0.00727   0.00150
           Y            0.00725   0.99989   0.01319
           Z           -0.00160  -0.01318   0.99991
 This molecule is an asymmetric top.
 Rotational symmetry number  1.
 Rotational temperatures (Kelvin)      0.28890     0.02031     0.01965
 Rotational constants (GHZ):           6.01969     0.42319     0.40943
 Zero-point vibrational energy     662634.1 (Joules/Mol)
                                  158.37336 (Kcal/Mol)
 Warning -- explicit consideration of  15 degrees of freedom as
           vibrations may cause significant error
 Vibrational temperatures:     44.95    81.67    94.37   144.58   154.45
          (Kelvin)            176.13   253.39   344.17   371.52   403.24
                              425.41   506.07   559.16   693.47   800.26
                             1100.36  1103.32  1131.49  1154.18  1184.22
                             1252.55  1296.03  1310.97  1427.80  1478.97
                             1509.47  1510.67  1555.27  1585.37  1629.12
                             1651.59  1682.91  1698.96  1732.31  1802.26
                             1855.94  1868.06  1894.67  1911.82  1937.70
                             1995.14  1999.73  2025.79  2033.00  2045.06
                             2053.64  2131.14  2140.65  2148.01  2149.42
                             2159.78  2164.43  2171.06  2173.55  2179.28
                             2201.08  2207.54  4210.37  4213.81  4240.33
                             4354.10  4358.11  4367.44  4368.81  4372.95
                             4394.36  4402.09  4407.67  4436.45  4465.05
                             4470.31  4482.89  4492.25  5021.49  5037.53

 Zero-point correction=                           0.252384 (Hartree/Particle)
 Thermal correction to Energy=                    0.264430
 Thermal correction to Enthalpy=                  0.265374
 Thermal correction to Gibbs Free Energy=         0.213171
 Sum of electronic and zero-point Energies=           -386.852729
 Sum of electronic and thermal Energies=              -386.840683
 Sum of electronic and thermal Enthalpies=            -386.839739
 Sum of electronic and thermal Free Energies=         -386.891942

                     E (Thermal)             CV                S
                      KCal/Mol        Cal/Mol-Kelvin    Cal/Mol-Kelvin
 Total                  165.932             42.274            109.871
 Electronic               0.000              0.000              0.000
 Translational            0.889              2.981             40.503
 Rotational               0.889              2.981             30.112
 Vibrational            164.155             36.312             39.256
 Vibration     1          0.594              1.983              5.749
 Vibration     2          0.596              1.975              4.567
 Vibration     3          0.597              1.971              4.281
 Vibration     4          0.604              1.949              3.445
 Vibration     5          0.606              1.943              3.316
 Vibration     6          0.610              1.930              3.062
 Vibration     7          0.628              1.872              2.369
 Vibration     8          0.657              1.780              1.809
 Vibration     9          0.667              1.749              1.674
 Vibration    10          0.680              1.710              1.532
 Vibration    11          0.690              1.682              1.441
 Vibration    12          0.728              1.572              1.158
 Vibration    13          0.757              1.494              1.005
 Vibration    14          0.838              1.290              0.705
 Vibration    15          0.912              1.126              0.531

 Optimization completed.
    -- Stationary point found.
 Normal termination of Gaussian 16 at Thu Jul 11 18:11:53 2024.
 Gaussian 16:  EM64L-G16RevA.03 25-Dec-2016

 ----------------------------------------------------------------------
 # TD(NStates=10, Root=1) B3LYP/6-31G** SCRF=(Solvent=water) volume pop
 =NPA density=current Geom=AllCheck Guess=Read
 ----------------------------------------------------------------------

 Structure from the checkpoint file:  "BEPGHZIEOVULBU-UHFFFAOYSA-N_conf_4_2.chk"
 ----------------------------------
 BEPGHZIEOVULBU-UHFFFAOYSA-N_conf_4
 ----------------------------------
 Charge =  0 Multiplicity = 1

                         Standard orientation:
 ---------------------------------------------------------------------
 Center     Atomic      Atomic             Coordinates (Angstroms)
 Number     Number       Type             X           Y           Z
 ---------------------------------------------------------------------
      1          6           0       -4.384140    0.570933   -0.177146
      2          6           0       -3.619567   -0.682123    0.275717
      3          7           0       -2.248052   -0.833872   -0.222226
      4          6           0       -1.308170    0.194455    0.231847
      5          6           0        0.109659   -0.107706   -0.258885
      6          6           0        1.133906    0.923061    0.228327
      7          7           0        2.476825    0.684625   -0.314889
      8          6           0        3.213413   -0.388842    0.359969
      9          6           0        4.636270   -0.498728   -0.182080
     10          1           0       -5.405680    0.561708    0.218841
     11          1           0       -3.903146    1.491409    0.167949
     12          1           0       -4.449422    0.613230   -1.270653
     13          1           0       -4.180753   -1.572584   -0.033930
     14          1           0       -3.577569   -0.708993    1.372523
     15          1           0       -2.268502   -0.829365   -1.241308
     16          1           0       -1.324793    0.196001    1.330594
     17          1           0       -1.586787    1.216521   -0.081607
     18          1           0        0.126528   -0.122081   -1.356910
     19          1           0        0.386025   -1.114746    0.074369
     20          1           0        0.817565    1.919691   -0.102298
     21          1           0        1.129840    0.942286    1.335059
     22          1           0        3.015133    1.542068   -0.206348
     23          1           0        3.243474   -0.247226    1.457150
     24          1           0        2.685974   -1.334432    0.188009
     25          1           0        5.198445    0.425418   -0.003011
     26          1           0        5.176135   -1.316139    0.305595
     27          1           0        4.627901   -0.684342   -1.260723
 ---------------------------------------------------------------------

 SCF Done:  E(RB3LYP) =  -387.105113272     A.U. after    1 cycles

 Excitation energies and oscillator strengths:

 Excited State   1:      Singlet-A      7.1308 eV  173.87 nm  f=0.0157  <S**2>=0.000
      37 -> 38         0.69210
 This state for optimization and/or second-order correction.
 Total Energy, E(TD-HF/TD-DFT) =  -386.843059778
 Copying the excited state density for this state as the 1-particle RhoCI density.

 Excited State   2:      Singlet-A      7.2585 eV  170.81 nm  f=0.0201  <S**2>=0.000
      36 -> 39         0.68565

 Excited State   3:      Singlet-A      7.7140 eV  160.73 nm  f=0.0139  <S**2>=0.000
      37 -> 39         0.62200
      37 -> 40         0.27016
      37 -> 42        -0.11166

 Excited State   4:      Singlet-A      7.7877 eV  159.20 nm  f=0.0225  <S**2>=0.000
      36 -> 38         0.65573
      36 -> 40        -0.20320
      36 -> 41        -0.10829

 Excited State   5:      Singlet-A      7.9772 eV  155.42 nm  f=0.0309  <S**2>=0.000
      36 -> 39        -0.11678
      36 -> 40        -0.45960
      36 -> 41         0.49678

 Excited State   6:      Singlet-A      8.0082 eV  154.82 nm  f=0.0278  <S**2>=0.000
      37 -> 39         0.22809
      37 -> 40        -0.15960
      37 -> 41        -0.23227
      37 -> 42         0.58413

 Excited State   7:      Singlet-A      8.1721 eV  151.72 nm  f=0.0054  <S**2>=0.000
      36 -> 41        -0.11367
      37 -> 39        -0.20680
      37 -> 40         0.60830
      37 -> 41        -0.16005
      37 -> 42         0.18531

 Excited State   8:      Singlet-A      8.1967 eV  151.26 nm  f=0.0371  <S**2>=0.000
      36 -> 38         0.21975
      36 -> 40         0.47166
      36 -> 41         0.41944
      36 -> 43         0.10556
      37 -> 41        -0.15983

 Excited State   9:      Singlet-A      8.2428 eV  150.41 nm  f=0.0370  <S**2>=0.000
      36 -> 41         0.14169
      37 -> 41         0.51599
      37 -> 42         0.29313
      37 -> 43        -0.30913
      37 -> 44        -0.10445

 Excited State  10:      Singlet-A      8.5437 eV  145.12 nm  f=0.0704  <S**2>=0.000
      36 -> 42         0.64949
      36 -> 43        -0.16613
      36 -> 45        -0.14479

 The electronic state is 1-A.
 Alpha  occ. eigenvalues --  -14.31240 -14.31133 -10.20211 -10.20163 -10.20161
 Alpha  occ. eigenvalues --  -10.20036 -10.17381 -10.17259 -10.16929  -0.89745
 Alpha  occ. eigenvalues --   -0.89156  -0.77017  -0.73716  -0.71139  -0.64428
 Alpha  occ. eigenvalues --   -0.60865  -0.59199  -0.57373  -0.48847  -0.46951
 Alpha  occ. eigenvalues --   -0.46196  -0.44836  -0.43746  -0.43130  -0.40919
 Alpha  occ. eigenvalues --   -0.39827  -0.38023  -0.36906  -0.36544  -0.35202
 Alpha  occ. eigenvalues --   -0.34569  -0.34071  -0.33458  -0.32468  -0.31833
 Alpha  occ. eigenvalues --   -0.22112  -0.21675
 Alpha virt. eigenvalues --    0.08977   0.09161   0.11180   0.11490   0.12092
 Alpha virt. eigenvalues --    0.13515   0.14335   0.15566   0.15859   0.16871
 Alpha virt. eigenvalues --    0.17366   0.17725   0.18147   0.18722   0.18933

 Mulliken charges:
               1
     1  C   -0.247243
     2  C   -0.030616
     3  N   -0.131611
     4  C   -0.024081
     5  C   -0.186007
     6  C   -0.044036
     7  N   -0.528988
     8  C   -0.031406
     9  C   -0.336095
    10  H    0.063084
    11  H    0.063554
    12  H    0.048152
    13  H    0.057905
    14  H    0.094898
    15  H   -0.029293
    16  H    0.101558
    17  H    0.055088
    18  H    0.063314
    19  H    0.106465
    20  H    0.094431
    21  H    0.080015
    22  H    0.249196
    23  H    0.077366
    24  H    0.106557
    25  H    0.108342
    26  H    0.108867
    27  H    0.110585
 Sum of Mulliken charges =   0.00000

 Dipole moment (field-independent basis, Debye):
    X=              1.1266    Y=             -0.0800    Z=              2.6578  Tot=              2.8878
 Quadrupole moment (field-independent basis, Debye-Ang):
   XX=            -62.7248   YY=            -59.1674   ZZ=            -65.4296
   XY=              3.1593   XZ=             -0.9269   YZ=             -0.1276

 Summary of Natural Population Analysis:

                                       Natural Population
                Natural  -----------------------------------------------
    Atom  No    Charge         Core      Valence    Rydberg      Total
 -----------------------------------------------------------------------
      C    1   -0.69841      1.99940     4.68747    0.01154     6.69841
      C    2   -0.33940      1.99938     4.32226    0.01777     6.33940
      N    3   -0.19362      1.99934     5.17891    0.01537     7.19362
      C    4   -0.34774      1.99929     4.32652    0.02192     6.34774
      C    5   -0.50361      1.99932     4.48670    0.01759     6.50361
      C    6   -0.26602      1.99934     4.25015    0.01653     6.26602
      N    7   -0.71497      1.99956     5.70007    0.01534     7.71497
      C    8   -0.26346      1.99938     4.25095    0.01313     6.26346
      C    9   -0.69755      1.99946     4.69068    0.00741     6.69755
      H   10    0.20205      0.00000     0.77883    0.01912     0.79795
      H   11    0.19954      0.00000     0.77847    0.02200     0.80046
      H   12    0.19359      0.00000     0.77709    0.02932     0.80641
      H   13    0.20570      0.00000     0.76411    0.03020     0.79430
      H   14    0.22238      0.00000     0.75629    0.02132     0.77762
      H   15    0.16794      0.00000     0.73029    0.10178     0.83206
      H   16    0.23229      0.00000     0.74935    0.01836     0.76771
      H   17    0.20073      0.00000     0.75618    0.04309     0.79927
      H   18    0.21105      0.00000     0.76957    0.01938     0.78895
      H   19    0.23738      0.00000     0.75743    0.00519     0.76262
      H   20    0.22952      0.00000     0.76589    0.00459     0.77048
      H   21    0.20215      0.00000     0.79438    0.00347     0.79785
      H   22    0.39209      0.00000     0.60440    0.00350     0.60791
      H   23    0.19971      0.00000     0.79670    0.00358     0.80029
      H   24    0.22491      0.00000     0.77307    0.00202     0.77509
      H   25    0.22935      0.00000     0.76904    0.00161     0.77065
      H   26    0.24069      0.00000     0.75802    0.00129     0.75931
      H   27    0.23374      0.00000     0.76411    0.00216     0.76626
 =======================================================================
   * Total *   -0.00000     17.99448    55.53694    0.46857    74.00000

 1\1\GINC-CN33\SP\RB3LYP TD-FC\6-31G(d,p)\C7H18N2\QDUEZ\11-Jul-2024\0\\
 # TD(NStates=10, Root=1) B3LYP/6-31G** SCRF=(Solvent=water) volume pop
 =NPA density=current Geom=AllCheck Guess=Read\\BEPGHZIEOVULBU-UHFFFAOY
 SA-N_conf_4\\0,1\C,0,-4.2530373819,-0.0414379015,1.1130570985\C,0,-3.6
 77792586,0.0928435753,-0.3049939793\N,0,-2.3078222932,0.6057346259,-0.
 415239123\C,0,-1.2775311543,-0.250381515,0.1785460407\C,0,0.1193174325
 ,0.3211683328,-0.0754253354\C,0,1.2314644447,-0.5659675607,0.494714119
 6\N,0,2.5651598717,0.0253370647,0.3304549003\C,0,3.1213784135,-0.11825

 Normal termination of Gaussian 16 at Thu Jul 11 18:40:14 2024.
