 Gaussian 16, Revision A.03,

 -------------------------------------------------------
 # opt=CalcFc B3LYP/6-31G** SCRF=(Solvent=water) scf=xqc
 -------------------------------------------------------

 ----------------------------------
 CBCKQZAAMUWICA-UHFFFAOYSA-N_conf_0
 ----------------------------------
 Symbolic Z-matrix:
 Charge =  0 Multiplicity = 1

 SCF Done:  E(RB3LYP) =  -342.978441827     A.U. after   10 cycles
 SCF Done:  E(RB3LYP) =  -342.981242371     A.U. after    9 cycles
 SCF Done:  E(RB3LYP) =  -342.981319551     A.U. after    9 cycles
 Optimization completed.
    -- Stationary point found.
 Normal termination of Gaussian 16 at Thu Jul 11 17:32:20 2024.

 ----------------------------------------------------------------------
 # freq B3LYP/6-31G** SCRF=(Solvent=water) volume NMR pop=NPA density=c
 urrent Geom=AllCheck Guess=Read
 ----------------------------------------------------------------------

 Structure from the checkpoint file:  "CBCKQZAAMUWICA-UHFFFAOYSA-N_conf_0_1.chk"
 ----------------------------------
 CBCKQZAAMUWICA-UHFFFAOYSA-N_conf_0
 ----------------------------------
 Charge =  0 Multiplicity = 1

 SCF Done:  E(RB3LYP) =  -342.981319551     A.U. after    1 cycles

      1  N    Isotropic =   204.8546   Anisotropy =    74.8189

      2  C    Isotropic =    58.2629   Anisotropy =   150.1876

      3  C    Isotropic =    81.7359   Anisotropy =   130.9287

      4  C    Isotropic =    81.7359   Anisotropy =   130.9287

      5  C    Isotropic =    58.2629   Anisotropy =   150.1876

      6  N    Isotropic =   204.8546   Anisotropy =    74.8189

      7  C    Isotropic =    81.7359   Anisotropy =   130.9287

      8  C    Isotropic =    81.7359   Anisotropy =   130.9287

      9  H    Isotropic =    29.0487   Anisotropy =    12.0470

     10  H    Isotropic =    29.0487   Anisotropy =    12.0470

     11  H    Isotropic =    25.2670   Anisotropy =     5.3599

     12  H    Isotropic =    25.2670   Anisotropy =     5.3599

     13  H    Isotropic =    29.0487   Anisotropy =    12.0470

     14  H    Isotropic =    29.0487   Anisotropy =    12.0470

     15  H    Isotropic =    25.2670   Anisotropy =     5.3599

     16  H    Isotropic =    25.2670   Anisotropy =     5.3599

  Exact polarizability: 148.541  -0.000 111.919   0.000  -0.000  34.757
 Approx polarizability: 176.639  -0.000 139.465  -0.000   0.000  43.744

                      1                      2                      3
                      A                      A                      A
 Frequencies --    151.1053               254.9988               260.7354
 Red. masses --      4.2170                 1.0570                 1.0453
 Frc consts  --      0.0567                 0.0405                 0.0419
 IR Inten    --      4.7707                78.8885                 0.0000

                      4                      5                      6
                      A                      A                      A
 Frequencies --    320.2051               355.3314               416.8511
 Red. masses --      3.2911                 4.2990                 3.1486
 Frc consts  --      0.1988                 0.3198                 0.3224
 IR Inten    --      2.9950                23.9508                 0.0000

                      7                      8                      9
                      A                      A                      A
 Frequencies --    430.2248               474.1293               518.4714
 Red. masses --      2.9364                 6.6530                 2.0991
 Frc consts  --      0.3202                 0.8812                 0.3324
 IR Inten    --      0.0000                 0.6067                50.3423

                     10                     11                     12
                      A                      A                      A
 Frequencies --    653.8176               659.7810               718.6943
 Red. masses --      1.8275                 6.7124                 4.4571
 Frc consts  --      0.4603                 1.7216                 1.3564
 IR Inten    --    722.8524                 0.0000               111.7998

                     13                     14                     15
                      A                      A                      A
 Frequencies --    718.7351               794.5623               817.8482
 Red. masses --      1.3053                 2.4182                 1.2597
 Frc consts  --      0.3973                 0.8995                 0.4964
 IR Inten    --    181.6515                54.8536                 0.2754

                     16                     17                     18
                      A                      A                      A
 Frequencies --    833.6036               860.4816               924.8141
 Red. masses --      1.9123                 4.5575                 1.2696
 Frc consts  --      0.7830                 1.9882                 0.6398
 IR Inten    --    125.9388                20.7121                 1.8354

                     19                     20                     21
                      A                      A                      A
 Frequencies --    933.1134              1025.7422              1083.4985
 Red. masses --      1.2979                 2.7081                 1.5806
 Frc consts  --      0.6658                 1.6788                 1.0933
 IR Inten    --      0.0000                 1.0917                 1.1482

                     22                     23                     24
                      A                      A                      A
 Frequencies --   1136.6020              1161.0422              1205.7483
 Red. masses --      1.2125                 1.1861                 1.1078
 Frc consts  --      0.9229                 0.9421                 0.9489
 IR Inten    --      0.0000                34.1655                 0.0006

                     25                     26                     27
                      A                      A                      A
 Frequencies --   1289.6999              1304.7329              1366.1602
 Red. masses --      2.2573                 6.1775                 4.7590
 Frc consts  --      2.2122                 6.1960                 5.2332
 IR Inten    --    184.8465                 0.7201                46.9635

                     28                     29                     30
                      A                      A                      A
 Frequencies --   1368.2691              1495.5414              1558.4357
 Red. masses --      1.2897                 2.8276                 2.6235
 Frc consts  --      1.4226                 3.7262                 3.7541
 IR Inten    --      0.0000                 0.0781               320.5080

                     31                     32                     33
                      A                      A                      A
 Frequencies --   1636.4821              1656.7143              1658.7123
 Red. masses --      5.9408                 1.1546                 1.1268
 Frc consts  --      9.3739                 1.8671                 1.8266
 IR Inten    --      0.0000                34.4347               115.8520

                     34                     35                     36
                      A                      A                      A
 Frequencies --   1682.9810              3167.2662              3167.9980
 Red. masses --      5.1229                 1.0863                 1.0869
 Frc consts  --      8.5492                 6.4207                 6.4273
 IR Inten    --      2.9133                59.9175                 0.0000

                     37                     38                     39
                      A                      A                      A
 Frequencies --   3182.3410              3185.9351              3540.6192
 Red. masses --      1.0945                 1.0945                 1.0493
 Frc consts  --      6.5309                 6.5455                 7.7500
 IR Inten    --     64.8283                 0.0011                 9.4187

                     40                     41                     42
                      A                      A                      A
 Frequencies --   3540.7895              3636.7216              3636.8192
 Red. masses --      1.0491                 1.0964                 1.0964
 Frc consts  --      7.7492                 8.5435                 8.5437
 IR Inten    --     16.3431                 0.0000                28.2522

 - Thermochemistry -
 -------------------
 Temperature   298.150 Kelvin.  Pressure   1.00000 Atm.
 Atom     1 has atomic number  7 and mass  14.00307

 Molecular mass:   108.06875 amu.
 Principal axes and moments of inertia in atomic units:
                           1         2         3
     Eigenvalues --   325.858101234.553721556.12978
           X            1.00000   0.00000   0.00000
           Y           -0.00000   1.00000  -0.00000
           Z           -0.00000   0.00000   1.00000
 This molecule is an asymmetric top.
 Rotational symmetry number  1.
 Rotational temperatures (Kelvin)      0.26580     0.07016     0.05566
 Rotational constants (GHZ):           5.53843     1.46186     1.15976
 Zero-point vibrational energy     351620.5 (Joules/Mol)
                                   84.03931 (Kcal/Mol)
 Warning -- explicit consideration of   9 degrees of freedom as
           vibrations may cause significant error
 Vibrational temperatures:    217.41   366.89   375.14   460.70   511.24
          (Kelvin)            599.76   619.00   682.17   745.96   940.70
                              949.28  1034.04  1034.10  1143.20  1176.70
                             1199.37  1238.04  1330.60  1342.54  1475.81
                             1558.91  1635.32  1670.48  1734.80  1855.59
                             1877.22  1965.60  1968.63  2151.75  2242.24
                             2354.53  2383.64  2386.52  2421.43  4556.99
                             4558.04  4578.68  4583.85  5094.16  5094.41
                             5232.43  5232.57

 Zero-point correction=                           0.133925 (Hartree/Particle)
 Thermal correction to Energy=                    0.141162
 Thermal correction to Enthalpy=                  0.142106
 Thermal correction to Gibbs Free Energy=         0.103066
 Sum of electronic and zero-point Energies=           -342.847394
 Sum of electronic and thermal Energies=              -342.840158
 Sum of electronic and thermal Enthalpies=            -342.839214
 Sum of electronic and thermal Free Energies=         -342.878254

                     E (Thermal)             CV                S
                      KCal/Mol        Cal/Mol-Kelvin    Cal/Mol-Kelvin
 Total                   88.580             28.860             82.167
 Electronic               0.000              0.000              0.000
 Translational            0.889              2.981             39.949
 Rotational               0.889              2.981             27.928
 Vibrational             86.803             22.899             14.289
 Vibration     1          0.619              1.901              2.658
 Vibration     2          0.665              1.754              1.696
 Vibration     3          0.669              1.745              1.657
 Vibration     4          0.706              1.635              1.309
 Vibration     5          0.731              1.564              1.142
 Vibration     6          0.780              1.434              0.903
 Vibration     7          0.791              1.404              0.858
 Vibration     8          0.831              1.307              0.726
 Vibration     9          0.873              1.209              0.614

 Optimization completed.
    -- Stationary point found.
 Normal termination of Gaussian 16 at Thu Jul 11 17:46:55 2024.
 Gaussian 16:  EM64L-G16RevA.03 25-Dec-2016

 ----------------------------------------------------------------------
 # TD(NStates=10, Root=1) B3LYP/6-31G** SCRF=(Solvent=water) volume pop
 =NPA density=current Geom=AllCheck Guess=Read
 ----------------------------------------------------------------------

 Structure from the checkpoint file:  "CBCKQZAAMUWICA-UHFFFAOYSA-N_conf_0_2.chk"
 ----------------------------------
 CBCKQZAAMUWICA-UHFFFAOYSA-N_conf_0
 ----------------------------------
 Charge =  0 Multiplicity = 1

                         Standard orientation:
 ---------------------------------------------------------------------
 Center     Atomic      Atomic             Coordinates (Angstroms)
 Number     Number       Type             X           Y           Z
 ---------------------------------------------------------------------
      1          7           0       -2.831114    0.000000   -0.077030
      2          6           0       -1.423409    0.000000   -0.007428
      3          6           0       -0.696995    1.201336   -0.006459
      4          6           0        0.696995    1.201336   -0.006459
      5          6           0        1.423409    0.000000   -0.007428
      6          7           0        2.831114    0.000000   -0.077030
      7          6           0        0.696995   -1.201336   -0.006459
      8          6           0       -0.696995   -1.201336   -0.006459
      9          1           0       -3.250407   -0.826945    0.332606
     10          1           0       -3.250407    0.826944    0.332606
     11          1           0       -1.230071    2.149109   -0.001964
     12          1           0        1.230071    2.149109   -0.001964
     13          1           0        3.250407   -0.826944    0.332607
     14          1           0        3.250407    0.826944    0.332606
     15          1           0        1.230071   -2.149109   -0.001964
     16          1           0       -1.230071   -2.149109   -0.001964
 ---------------------------------------------------------------------

 SCF Done:  E(RB3LYP) =  -342.981319551     A.U. after    1 cycles

 Excitation energies and oscillator strengths:

 Excited State   1:      Singlet-A      4.2403 eV  292.40 nm  f=0.1023  <S**2>=0.000
      28 -> 31        -0.14231
      29 -> 30         0.69301
 This state for optimization and/or second-order correction.
 Total Energy, E(TD-HF/TD-DFT) =  -342.825491762
 Copying the excited state density for this state as the 1-particle RhoCI density.

 Excited State   2:      Singlet-A      5.2998 eV  233.94 nm  f=0.5327  <S**2>=0.000
      28 -> 30         0.12491
      29 -> 31         0.69245

 Excited State   3:      Singlet-A      6.3787 eV  194.37 nm  f=0.0000  <S**2>=0.000
      27 -> 30         0.70408

 Excited State   4:      Singlet-A      6.4142 eV  193.30 nm  f=0.0043  <S**2>=0.000
      29 -> 32         0.70142

 Excited State   5:      Singlet-A      6.4876 eV  191.11 nm  f=0.5132  <S**2>=0.000
      28 -> 30         0.62843
      29 -> 33        -0.29521

 Excited State   6:      Singlet-A      6.6417 eV  186.68 nm  f=0.1815  <S**2>=0.000
      28 -> 30         0.28134
      29 -> 33         0.63465

 Excited State   7:      Singlet-A      6.8557 eV  180.85 nm  f=0.3215  <S**2>=0.000
      25 -> 30         0.15665
      28 -> 31         0.67342
      29 -> 30         0.13368

 Excited State   8:      Singlet-A      7.0791 eV  175.14 nm  f=0.0119  <S**2>=0.000
      29 -> 34         0.69906

 Excited State   9:      Singlet-A      7.2840 eV  170.21 nm  f=0.0000  <S**2>=0.000
      29 -> 35         0.70282

 Excited State  10:      Singlet-A      7.3190 eV  169.40 nm  f=0.0008  <S**2>=0.000
      27 -> 31         0.70186

 The electronic state is 1-A.
 Alpha  occ. eigenvalues --  -14.32927 -14.32927 -10.21576 -10.21575 -10.18059
 Alpha  occ. eigenvalues --  -10.18058 -10.18004 -10.18003  -0.90945  -0.89954
 Alpha  occ. eigenvalues --   -0.81396  -0.73809  -0.70267  -0.61184  -0.58556
 Alpha  occ. eigenvalues --   -0.51420  -0.51126  -0.48356  -0.46804  -0.42838
 Alpha  occ. eigenvalues --   -0.41237  -0.40220  -0.39173  -0.36764  -0.33531
 Alpha  occ. eigenvalues --   -0.33328  -0.26377  -0.24612  -0.17823
 Alpha virt. eigenvalues --    0.00199   0.03135   0.09251   0.10047   0.11841
 Alpha virt. eigenvalues --    0.12705   0.15889   0.17566   0.18454   0.18558
 Alpha virt. eigenvalues --    0.20647   0.24712   0.29893   0.34068   0.34259

 Mulliken charges:
               1
     1  N   -0.607121
     2  C    0.251491
     3  C   -0.181310
     4  C   -0.181310
     5  C    0.251491
     6  N   -0.607121
     7  C   -0.181310
     8  C   -0.181310
     9  H    0.294984
    10  H    0.294984
    11  H    0.064141
    12  H    0.064141
    13  H    0.294984
    14  H    0.294984
    15  H    0.064141
    16  H    0.064141
 Sum of Mulliken charges =  -0.00000

 Dipole moment (field-independent basis, Debye):
    X=             -0.0000    Y=              0.0000    Z=              2.6487  Tot=              2.6487
 Quadrupole moment (field-independent basis, Debye-Ang):
   XX=            -24.1751   YY=            -44.2313   ZZ=            -52.1661
   XY=              0.0000   XZ=              0.0000   YZ=             -0.0000

 Summary of Natural Population Analysis:

                                       Natural Population
                Natural  -----------------------------------------------
    Atom  No    Charge         Core      Valence    Rydberg      Total
 -----------------------------------------------------------------------
      N    1   -0.74527      1.99949     5.73504    0.01074     7.74527
      C    2    0.19085      1.99894     3.79222    0.01799     5.80915
      C    3   -0.37287      1.99906     4.35410    0.01971     6.37287
      C    4   -0.37287      1.99906     4.35410    0.01971     6.37287
      C    5    0.19085      1.99894     3.79222    0.01799     5.80915
      N    6   -0.74527      1.99949     5.73504    0.01074     7.74527
      C    7   -0.37287      1.99906     4.35410    0.01971     6.37287
      C    8   -0.37287      1.99906     4.35410    0.01971     6.37287
      H    9    0.42076      0.00000     0.57597    0.00327     0.57924
      H   10    0.42076      0.00000     0.57597    0.00327     0.57924
      H   11    0.22932      0.00000     0.76890    0.00178     0.77068
      H   12    0.22932      0.00000     0.76890    0.00178     0.77068
      H   13    0.42076      0.00000     0.57597    0.00327     0.57924
      H   14    0.42076      0.00000     0.57597    0.00327     0.57924
      H   15    0.22932      0.00000     0.76890    0.00178     0.77068
      H   16    0.22932      0.00000     0.76890    0.00178     0.77068
 =======================================================================
   * Total *    0.00000     15.99311    41.85041    0.15649    58.00000

 Normal termination of Gaussian 16 at Thu Jul 11 18:06:44 2024.
