 Gaussian 16, Revision A.03,

 -------------------------------------------------------
 # opt=CalcFc B3LYP/6-31G** SCRF=(Solvent=water) scf=xqc
 -------------------------------------------------------

 ----------------------------------
 AGAHETWGCFCMDK-UHFFFAOYSA-N_conf_2
 ----------------------------------
 Symbolic Z-matrix:
 Charge =  0 Multiplicity = 1

 SCF Done:  E(RB3LYP) =  -457.503442593     A.U. after   12 cycles
 SCF Done:  E(RB3LYP) =  -457.507355928     A.U. after   10 cycles
 SCF Done:  E(RB3LYP) =  -457.507705305     A.U. after   10 cycles
 SCF Done:  E(RB3LYP) =  -457.507730008     A.U. after    9 cycles
 SCF Done:  E(RB3LYP) =  -457.507733506     A.U. after    8 cycles
 SCF Done:  E(RB3LYP) =  -457.507733588     A.U. after    7 cycles
 Optimization completed.
    -- Stationary point found.
 Normal termination of Gaussian 16 at Thu Jul 11 17:38:06 2024.

 ----------------------------------------------------------------------
 # freq B3LYP/6-31G** SCRF=(Solvent=water) volume NMR pop=NPA density=c
 urrent Geom=AllCheck Guess=Read
 ----------------------------------------------------------------------

 Structure from the checkpoint file:  "AGAHETWGCFCMDK-UHFFFAOYSA-N_conf_2_1.chk"
 ----------------------------------
 AGAHETWGCFCMDK-UHFFFAOYSA-N_conf_2
 ----------------------------------
 Charge =  0 Multiplicity = 1

 SCF Done:  E(RB3LYP) =  -457.507733588     A.U. after    1 cycles

      1  N    Isotropic =   211.9298   Anisotropy =    39.0076

      2  C    Isotropic =    69.4106   Anisotropy =   129.1707

      3  C    Isotropic =    79.1537   Anisotropy =   128.5101

      4  C    Isotropic =    90.7743   Anisotropy =   117.8515

      5  C    Isotropic =    44.2131   Anisotropy =   116.2451

      6  O    Isotropic =   248.2965   Anisotropy =    62.0642

      7  C    Isotropic =   139.1242   Anisotropy =    67.9379

      8  C    Isotropic =    98.4682   Anisotropy =   111.0125

      9  C    Isotropic =    58.9115   Anisotropy =   142.4302

     10  N    Isotropic =   204.7256   Anisotropy =    42.8419

     11  H    Isotropic =    29.5997   Anisotropy =    11.6092

     12  H    Isotropic =    29.1390   Anisotropy =    13.0179

     13  H    Isotropic =    25.1657   Anisotropy =     5.2050

     14  H    Isotropic =    25.6050   Anisotropy =     4.7335

     15  H    Isotropic =    28.1503   Anisotropy =     8.3226

     16  H    Isotropic =    27.8724   Anisotropy =     8.6775

     17  H    Isotropic =    28.1628   Anisotropy =     8.2630

     18  H    Isotropic =    25.6114   Anisotropy =     8.5024

     19  H    Isotropic =    28.8309   Anisotropy =    10.5400

     20  H    Isotropic =    28.8045   Anisotropy =    12.5677

  Exact polarizability: 166.046   2.487 139.345   0.660   0.664  51.155
 Approx polarizability: 191.708   9.706 170.796   0.237   2.230  61.825

                      1                      2                      3
                      A                      A                      A
 Frequencies --     75.5277               155.7880               197.8733
 Red. masses --      3.1146                 3.8538                 1.1582
 Frc consts  --      0.0105                 0.0551                 0.0267
 IR Inten    --      6.4611                 1.3196                48.2262

                      4                      5                      6
                      A                      A                      A
 Frequencies --    213.4791               218.2941               266.0094
 Red. masses --      1.8290                 2.9221                 1.5107
 Frc consts  --      0.0491                 0.0820                 0.0630
 IR Inten    --      1.3368                 4.0342                 0.6099

                      7                      8                      9
                      A                      A                      A
 Frequencies --    308.8302               371.0243               386.0344
 Red. masses --      3.6174                 4.5892                 4.2283
 Frc consts  --      0.2033                 0.3722                 0.3713
 IR Inten    --      0.3420                13.3311                 0.5801

                     10                     11                     12
                      A                      A                      A
 Frequencies --    437.4582               451.8335               483.3263
 Red. masses --      1.0585                 2.9016                 4.6143
 Frc consts  --      0.1193                 0.3490                 0.6351
 IR Inten    --     21.5783                14.2717                 5.4839

                     13                     14                     15
                      A                      A                      A
 Frequencies --    524.4534               588.9195               617.0522
 Red. masses --      4.7258                 4.4372                 2.9517
 Frc consts  --      0.7658                 0.9067                 0.6622
 IR Inten    --      3.0604                16.3702                43.1481

                     16                     17                     18
                      A                      A                      A
 Frequencies --    691.7156               704.2373               752.3874
 Red. masses --      2.8066                 3.4535                 1.9991
 Frc consts  --      0.7912                 1.0091                 0.6668
 IR Inten    --    125.5722               119.6737               256.0115

                     19                     20                     21
                      A                      A                      A
 Frequencies --    781.0580               797.8433               829.9679
 Red. masses --      2.2486                 1.9133                 1.4951
 Frc consts  --      0.8082                 0.7176                 0.6068
 IR Inten    --    224.4935                 5.7935                84.6302

                     22                     23                     24
                      A                      A                      A
 Frequencies --    838.1275               912.4150               973.1210
 Red. masses --      1.5650                 1.2631                 3.5861
 Frc consts  --      0.6477                 0.6196                 2.0008
 IR Inten    --    277.1096                 5.1180                33.6497

                     25                     26                     27
                      A                      A                      A
 Frequencies --   1064.2177              1089.1126              1133.1292
 Red. masses --      3.7922                 1.7867                 1.3638
 Frc consts  --      2.5305                 1.2487                 1.0317
 IR Inten    --     75.3967                15.3973                21.9243

                     28                     29                     30
                      A                      A                      A
 Frequencies --   1169.4615              1176.0656              1201.2238
 Red. masses --      1.1462                 1.2724                 1.5411
 Frc consts  --      0.9236                 1.0369                 1.3102
 IR Inten    --     14.3729                 1.5380                63.0219

                     31                     32                     33
                      A                      A                      A
 Frequencies --   1230.5664              1272.6831              1334.3210
 Red. masses --      2.0663                 3.0378                 1.4123
 Frc consts  --      1.8436                 2.8990                 1.4815
 IR Inten    --    179.9100               208.2933                 0.8642

                     34                     35                     36
                      A                      A                      A
 Frequencies --   1347.0851              1382.6480              1473.0713
 Red. masses --      4.6541                 4.2379                 1.8768
 Frc consts  --      4.9760                 4.7734                 2.3995
 IR Inten    --    113.2424                 7.0539                25.2868

                     37                     38                     39
                      A                      A                      A
 Frequencies --   1494.5737              1496.7135              1512.1980
 Red. masses --      1.0490                 1.6998                 1.0854
 Frc consts  --      1.3806                 2.2435                 1.4624
 IR Inten    --      7.5093                17.6659                72.0131

                     40                     41                     42
                      A                      A                      A
 Frequencies --   1557.2960              1624.8914              1649.0939
 Red. masses --      2.7983                 1.5360                 3.3360
 Frc consts  --      3.9984                 2.3894                 5.3453
 IR Inten    --    310.6181                66.8702               112.7730

                     43                     44                     45
                      A                      A                      A
 Frequencies --   1661.1802              1672.3830              3018.9587
 Red. masses --      1.1436                 3.9047                 1.0341
 Frc consts  --      1.8594                 6.4345                 5.5531
 IR Inten    --     31.3190                90.8461                79.8668

                     46                     47                     48
                      A                      A                      A
 Frequencies --   3080.8891              3148.4283              3174.3812
 Red. masses --      1.1062                 1.1006                 1.0889
 Frc consts  --      6.1866                 6.4280                 6.4651
 IR Inten    --     62.1231                36.8738                29.8304

                     49                     50                     51
                      A                      A                      A
 Frequencies --   3209.0390              3211.4380              3502.0878
 Red. masses --      1.0931                 1.0897                 1.0520
 Frc consts  --      6.6322                 6.6216                 7.6020
 IR Inten    --     14.9721                10.6628                 6.1281

                     52                     53                     54
                      A                      A                      A
 Frequencies --   3523.2918              3606.9989              3631.1704
 Red. masses --      1.0500                 1.0924                 1.0956
 Frc consts  --      7.6795                 8.3740                 8.5113
 IR Inten    --     16.9028                18.1378                24.5714

 - Thermochemistry -
 -------------------
 Temperature   298.150 Kelvin.  Pressure   1.00000 Atm.
 Atom     1 has atomic number  7 and mass  14.00307

 Molecular mass:   138.07931 amu.
 Principal axes and moments of inertia in atomic units:
                           1         2         3
     Eigenvalues --   663.930631984.621682631.13432
           X            0.99975  -0.02233   0.00156
           Y            0.02234   0.99972  -0.00717
           Z           -0.00140   0.00721   0.99997
 This molecule is an asymmetric top.
 Rotational symmetry number  1.
 Warning -- assumption of classical behavior for rotation
           may cause significant error
 Rotational temperatures (Kelvin)      0.13046     0.04364     0.03292
 Rotational constants (GHZ):           2.71827     0.90936     0.68592
 Zero-point vibrational energy     437985.0 (Joules/Mol)
                                  104.68093 (Kcal/Mol)
 Warning -- explicit consideration of  15 degrees of freedom as
           vibrations may cause significant error
 Vibrational temperatures:    108.67   224.14   284.70   307.15   314.08
          (Kelvin)            382.73   444.34   533.82   555.42   629.40
                              650.09   695.40   754.57   847.32   887.80
                              995.22  1013.24  1082.52  1123.77  1147.92
                             1194.14  1205.88  1312.76  1400.10  1531.17
                             1566.99  1630.32  1682.59  1692.10  1728.29
                             1770.51  1831.11  1919.79  1938.15  1989.32
                             2119.42  2150.36  2153.44  2175.72  2240.60
                             2337.86  2372.68  2390.07  2406.19  4343.61
                             4432.71  4529.89  4567.23  4617.09  4620.54
                             5038.72  5069.23  5189.67  5224.44

 Zero-point correction=                           0.166820 (Hartree/Particle)
 Thermal correction to Energy=                    0.176471
 Thermal correction to Enthalpy=                  0.177415
 Thermal correction to Gibbs Free Energy=         0.132568
 Sum of electronic and zero-point Energies=           -457.340914
 Sum of electronic and thermal Energies=              -457.331263
 Sum of electronic and thermal Enthalpies=            -457.330319
 Sum of electronic and thermal Free Energies=         -457.375166

                     E (Thermal)             CV                S
                      KCal/Mol        Cal/Mol-Kelvin    Cal/Mol-Kelvin
 Total                  110.737             37.589             94.389
 Electronic               0.000              0.000              0.000
 Translational            0.889              2.981             40.680
 Rotational               0.889              2.981             29.629
 Vibrational            108.960             31.627             24.081
 Vibration     1          0.599              1.965              4.004
 Vibration     2          0.620              1.896              2.600
 Vibration     3          0.637              1.843              2.153
 Vibration     4          0.644              1.820              2.014
 Vibration     5          0.646              1.813              1.973
 Vibration     6          0.672              1.735              1.622
 Vibration     7          0.698              1.657              1.369
 Vibration     8          0.743              1.532              1.076
 Vibration     9          0.755              1.500              1.015
 Vibration    10          0.798              1.389              0.835
 Vibration    11          0.810              1.357              0.790
 Vibration    12          0.840              1.287              0.701
 Vibration    13          0.879              1.196              0.600
 Vibration    14          0.946              1.055              0.469
 Vibration    15          0.977              0.996              0.421

 Optimization completed.
    -- Stationary point found.
 Normal termination of Gaussian 16 at Thu Jul 11 17:53:50 2024.
 Gaussian 16:  EM64L-G16RevA.03 25-Dec-2016

 ----------------------------------------------------------------------
 # TD(NStates=10, Root=1) B3LYP/6-31G** SCRF=(Solvent=water) volume pop
 =NPA density=current Geom=AllCheck Guess=Read
 ----------------------------------------------------------------------

 Structure from the checkpoint file:  "AGAHETWGCFCMDK-UHFFFAOYSA-N_conf_2_2.chk"
 ----------------------------------
 AGAHETWGCFCMDK-UHFFFAOYSA-N_conf_2
 ----------------------------------
 Charge =  0 Multiplicity = 1

                         Standard orientation:
 ---------------------------------------------------------------------
 Center     Atomic      Atomic             Coordinates (Angstroms)
 Number     Number       Type             X           Y           Z
 ---------------------------------------------------------------------
      1          7           0        3.050157   -0.377991   -0.042147
      2          6           0        1.633793   -0.422353    0.001355
      3          6           0        0.908625   -1.616629   -0.016205
      4          6           0       -0.486187   -1.624479   -0.026575
      5          6           0       -1.182651   -0.411542   -0.002750
      6          8           0       -2.553287   -0.503545    0.000723
      7          6           0       -3.306167    0.702842    0.021526
      8          6           0       -0.477331    0.797462    0.007016
      9          6           0        0.925329    0.800235   -0.001001
     10          7           0        1.658634    1.996060    0.046565
     11          1           0        3.431522    0.234291    0.675369
     12          1           0        3.461923   -1.297988    0.073287
     13          1           0        1.448311   -2.560692   -0.018429
     14          1           0       -1.041238   -2.556453   -0.038810
     15          1           0       -3.113101    1.316827   -0.866806
     16          1           0       -4.355532    0.404854    0.029107
     17          1           0       -3.094314    1.297392    0.918744
     18          1           0       -0.997456    1.748731    0.007709
     19          1           0        2.512368    1.948590   -0.501509
     20          1           0        1.119804    2.813107   -0.215569
 ---------------------------------------------------------------------

 SCF Done:  E(RB3LYP) =  -457.507733588     A.U. after    1 cycles

 Excitation energies and oscillator strengths:

 Excited State   1:      Singlet-A      4.5433 eV  272.89 nm  f=0.1691  <S**2>=0.000
      36 -> 39        -0.19704
      37 -> 38         0.67285
 This state for optimization and/or second-order correction.
 Total Energy, E(TD-HF/TD-DFT) =  -457.340768758
 Copying the excited state density for this state as the 1-particle RhoCI density.

 Excited State   2:      Singlet-A      5.3423 eV  232.08 nm  f=0.2848  <S**2>=0.000
      36 -> 38         0.19531
      37 -> 39         0.67157

 Excited State   3:      Singlet-A      5.9437 eV  208.60 nm  f=0.4684  <S**2>=0.000
      36 -> 38         0.65949
      37 -> 39        -0.19256

 Excited State   4:      Singlet-A      6.2112 eV  199.61 nm  f=0.0572  <S**2>=0.000
      36 -> 39         0.15217
      37 -> 40         0.68036

 Excited State   5:      Singlet-A      6.2869 eV  197.21 nm  f=0.5772  <S**2>=0.000
      35 -> 38        -0.10156
      36 -> 38        -0.10348
      36 -> 39         0.64207
      37 -> 38         0.17700
      37 -> 40        -0.15170

 Excited State   6:      Singlet-A      6.7852 eV  182.73 nm  f=0.0012  <S**2>=0.000
      37 -> 41         0.66630
      37 -> 42        -0.21491

 Excited State   7:      Singlet-A      6.9174 eV  179.23 nm  f=0.0855  <S**2>=0.000
      35 -> 38         0.67983
      36 -> 39         0.10463

 Excited State   8:      Singlet-A      7.0440 eV  176.01 nm  f=0.0110  <S**2>=0.000
      36 -> 40         0.14890
      37 -> 41         0.18924
      37 -> 42         0.62319
      37 -> 43        -0.20240

 Excited State   9:      Singlet-A      7.3504 eV  168.68 nm  f=0.0137  <S**2>=0.000
      36 -> 40         0.50280
      37 -> 41        -0.10221
      37 -> 42        -0.23322
      37 -> 43        -0.40380

 Excited State  10:      Singlet-A      7.4292 eV  166.89 nm  f=0.0127  <S**2>=0.000
      35 -> 39        -0.21941
      36 -> 40         0.43071
      37 -> 43         0.49507

 The electronic state is 1-A.
 Alpha  occ. eigenvalues --  -19.17174 -14.33494 -14.33145 -10.23795 -10.23245
 Alpha  occ. eigenvalues --  -10.22172 -10.21149 -10.18303 -10.17905 -10.17397
 Alpha  occ. eigenvalues --   -1.05419  -0.92732  -0.88287  -0.82312  -0.73225
 Alpha  occ. eigenvalues --   -0.72936  -0.67787  -0.61022  -0.58376  -0.52901
 Alpha  occ. eigenvalues --   -0.51976  -0.49171  -0.47390  -0.46038  -0.45815
 Alpha  occ. eigenvalues --   -0.44865  -0.42259  -0.40009  -0.39805  -0.37703
 Alpha  occ. eigenvalues --   -0.35292  -0.34022  -0.32574  -0.30853  -0.27110
 Alpha  occ. eigenvalues --   -0.22139  -0.18098
 Alpha virt. eigenvalues --    0.01126   0.03118   0.08354   0.10393   0.11123
 Alpha virt. eigenvalues --    0.12134   0.14137   0.15701   0.15886   0.16633
 Alpha virt. eigenvalues --    0.17706   0.18187   0.19227   0.20081   0.25699

 Mulliken charges:
               1
     1  N   -0.641501
     2  C    0.226847
     3  C   -0.200046
     4  C   -0.163525
     5  C    0.331962
     6  O   -0.514645
     7  C   -0.087686
     8  C   -0.239817
     9  C    0.201597
    10  N   -0.662309
    11  H    0.296801
    12  H    0.292402
    13  H    0.064834
    14  H    0.074489
    15  H    0.128962
    16  H    0.132063
    17  H    0.128701
    18  H    0.073961
    19  H    0.280726
    20  H    0.276186
 Sum of Mulliken charges =  -0.00000

 Dipole moment (field-independent basis, Debye):
    X=              2.2727    Y=              2.9265    Z=              0.0571  Tot=              3.7058
 Quadrupole moment (field-independent basis, Debye-Ang):
   XX=            -39.9256   YY=            -52.2272   ZZ=            -62.6784
   XY=             -5.4131   XZ=              1.8848   YZ=             -2.8958

 Summary of Natural Population Analysis:

                                       Natural Population
                Natural  -----------------------------------------------
    Atom  No    Charge         Core      Valence    Rydberg      Total
 -----------------------------------------------------------------------
      N    1   -0.78819      1.99952     5.77667    0.01201     7.78819
      C    2    0.15007      1.99889     3.83318    0.01785     5.84993
      C    3   -0.39485      1.99907     4.37570    0.02008     6.39485
      C    4   -0.32153      1.99906     4.30306    0.01941     6.32153
      C    5    0.33842      1.99878     3.63956    0.02324     5.66158
      O    6   -0.49364      1.99975     6.48246    0.01142     8.49364
      C    7   -0.33421      1.99942     4.32135    0.01344     6.33421
      C    8   -0.47848      1.99899     4.46162    0.01786     6.47848
      C    9    0.10286      1.99894     3.87807    0.02013     5.89714
      N   10   -0.82196      1.99952     5.80916    0.01329     7.82196
      H   11    0.42108      0.00000     0.57555    0.00337     0.57892
      H   12    0.42116      0.00000     0.57627    0.00256     0.57884
      H   13    0.22946      0.00000     0.76889    0.00165     0.77054
      H   14    0.23953      0.00000     0.75843    0.00205     0.76047
      H   15    0.21801      0.00000     0.77966    0.00233     0.78199
      H   16    0.23558      0.00000     0.76341    0.00101     0.76442
      H   17    0.21793      0.00000     0.77971    0.00236     0.78207
      H   18    0.23500      0.00000     0.76337    0.00163     0.76500
      H   19    0.41161      0.00000     0.58473    0.00366     0.58839
      H   20    0.41214      0.00000     0.58410    0.00376     0.58786
 =======================================================================
   * Total *    0.00000     19.99194    53.81496    0.19310    74.00000

 Normal termination of Gaussian 16 at Thu Jul 11 18:13:59 2024.
