 Gaussian 16, Revision A.03,

 -------------------------------------------------------
 # opt=CalcFc B3LYP/6-31G** SCRF=(Solvent=water) scf=xqc
 -------------------------------------------------------

 ----------------------------------
 AGAHETWGCFCMDK-UHFFFAOYSA-N_conf_1
 ----------------------------------
 Symbolic Z-matrix:
 Charge =  0 Multiplicity = 1

 SCF Done:  E(RB3LYP) =  -457.497957996     A.U. after   12 cycles
 SCF Done:  E(RB3LYP) =  -457.503502464     A.U. after   13 cycles
 SCF Done:  E(RB3LYP) =  -457.502877242     A.U. after   11 cycles
 SCF Done:  E(RB3LYP) =  -457.503725343     A.U. after   10 cycles
 SCF Done:  E(RB3LYP) =  -457.503767631     A.U. after   10 cycles
 SCF Done:  E(RB3LYP) =  -457.503779926     A.U. after    9 cycles
 SCF Done:  E(RB3LYP) =  -457.503790802     A.U. after    9 cycles
 SCF Done:  E(RB3LYP) =  -457.503814927     A.U. after   10 cycles
 SCF Done:  E(RB3LYP) =  -457.503435693     A.U. after   12 cycles
 SCF Done:  E(RB3LYP) =  -457.503936659     A.U. after   10 cycles
 SCF Done:  E(RB3LYP) =  -457.504280067     A.U. after    9 cycles
 SCF Done:  E(RB3LYP) =  -457.504343456     A.U. after    9 cycles
 SCF Done:  E(RB3LYP) =  -457.504511859     A.U. after   10 cycles
 SCF Done:  E(RB3LYP) =  -457.504640960     A.U. after    9 cycles
 SCF Done:  E(RB3LYP) =  -457.504685657     A.U. after    9 cycles
 SCF Done:  E(RB3LYP) =  -457.504693520     A.U. after    8 cycles
 SCF Done:  E(RB3LYP) =  -457.504694107     A.U. after    7 cycles
 SCF Done:  E(RB3LYP) =  -457.504694301     A.U. after    7 cycles
 Optimization completed.
    -- Stationary point found.
 Normal termination of Gaussian 16 at Thu Jul 11 18:13:48 2024.

 ----------------------------------------------------------------------
 # freq B3LYP/6-31G** SCRF=(Solvent=water) volume NMR pop=NPA density=c
 urrent Geom=AllCheck Guess=Read
 ----------------------------------------------------------------------

 Structure from the checkpoint file:  "AGAHETWGCFCMDK-UHFFFAOYSA-N_conf_1_1.chk"
 ----------------------------------
 AGAHETWGCFCMDK-UHFFFAOYSA-N_conf_1
 ----------------------------------
 Charge =  0 Multiplicity = 1

 SCF Done:  E(RB3LYP) =  -457.504694301     A.U. after    1 cycles

      1  N    Isotropic =   216.4032   Anisotropy =    43.1642

      2  C    Isotropic =    71.6243   Anisotropy =   122.9892

      3  C    Isotropic =    75.4874   Anisotropy =   129.2286

      4  C    Isotropic =    91.8765   Anisotropy =   115.4494

      5  C    Isotropic =    42.8843   Anisotropy =   117.8882

      6  O    Isotropic =   246.5122   Anisotropy =    64.6085

      7  C    Isotropic =   139.1052   Anisotropy =    67.9228

      8  C    Isotropic =    99.1955   Anisotropy =   111.6654

      9  C    Isotropic =    56.8601   Anisotropy =   144.8466

     10  N    Isotropic =   205.0795   Anisotropy =    53.9736

     11  H    Isotropic =    29.3124   Anisotropy =    12.7355

     12  H    Isotropic =    29.8650   Anisotropy =    12.5562

     13  H    Isotropic =    25.1307   Anisotropy =     5.2288

     14  H    Isotropic =    25.7053   Anisotropy =     4.5923

     15  H    Isotropic =    28.1746   Anisotropy =     8.2298

     16  H    Isotropic =    27.8771   Anisotropy =     8.6454

     17  H    Isotropic =    28.1542   Anisotropy =     8.2900

     18  H    Isotropic =    25.7164   Anisotropy =     8.6437

     19  H    Isotropic =    28.6740   Anisotropy =    12.4717

     20  H    Isotropic =    28.5847   Anisotropy =    11.4775

  Exact polarizability: 164.676   2.898 139.438   1.368   1.713  51.316
 Approx polarizability: 189.116  10.693 171.233  -0.207   0.982  62.125

                      1                      2                      3
                      A                      A                      A
 Frequencies --     74.9040               144.6723               179.5735
 Red. masses --      3.1765                 3.1295                 1.2296
 Frc consts  --      0.0105                 0.0386                 0.0234
 IR Inten    --      5.5825                13.9002                49.2934

                      4                      5                      6
                      A                      A                      A
 Frequencies --    207.9176               218.4673               253.2807
 Red. masses --      1.9821                 3.0894                 1.1359
 Frc consts  --      0.0505                 0.0869                 0.0429
 IR Inten    --      8.5861                 0.8510                24.7020

                      7                      8                      9
                      A                      A                      A
 Frequencies --    266.3216               327.0348               368.3027
 Red. masses --      1.3845                 3.0443                 4.0559
 Frc consts  --      0.0579                 0.1918                 0.3242
 IR Inten    --     15.5161                23.8023                22.6362

                     10                     11                     12
                      A                      A                      A
 Frequencies --    388.3442               454.6540               484.5631
 Red. masses --      4.1890                 2.8498                 4.6328
 Frc consts  --      0.3722                 0.3471                 0.6409
 IR Inten    --      1.7505                28.6014                 3.2436

                     13                     14                     15
                      A                      A                      A
 Frequencies --    522.6473               537.4839               595.1702
 Red. masses --      4.0340                 1.5066                 3.5948
 Frc consts  --      0.6492                 0.2564                 0.7502
 IR Inten    --     59.2705               350.6830                32.9293

                     16                     17                     18
                      A                      A                      A
 Frequencies --    630.9618               703.5503               724.1264
 Red. masses --      3.8240                 3.7777                 5.0247
 Frc consts  --      0.8970                 1.1017                 1.5523
 IR Inten    --     32.1052                34.0583                92.6249

                     19                     20                     21
                      A                      A                      A
 Frequencies --    780.0074               794.4726               828.4821
 Red. masses --      2.9128                 1.7004                 1.5057
 Frc consts  --      1.0441                 0.6323                 0.6089
 IR Inten    --     76.9882                15.5770                41.0826

                     22                     23                     24
                      A                      A                      A
 Frequencies --    856.1096               914.9235               976.1185
 Red. masses --      1.4607                 1.2690                 3.6744
 Frc consts  --      0.6308                 0.6259                 2.0627
 IR Inten    --    249.3215                10.2578                46.1000

                     25                     26                     27
                      A                      A                      A
 Frequencies --   1062.4783              1091.0573              1132.0862
 Red. masses --      3.5321                 1.8446                 1.3455
 Frc consts  --      2.3492                 1.2937                 1.0160
 IR Inten    --     68.0858                31.5479                18.2872

                     28                     29                     30
                      A                      A                      A
 Frequencies --   1168.6734              1175.9362              1202.0374
 Red. masses --      1.1546                 1.2725                 1.5299
 Frc consts  --      0.9291                 1.0368                 1.3024
 IR Inten    --     20.4020                 1.5359                54.4879

                     31                     32                     33
                      A                      A                      A
 Frequencies --   1233.2890              1264.9072              1330.9801
 Red. masses --      2.1641                 3.0933                 1.3958
 Frc consts  --      1.9393                 2.9161                 1.4568
 IR Inten    --    190.6825               209.5864                 2.7280

                     34                     35                     36
                      A                      A                      A
 Frequencies --   1348.5999              1375.0473              1470.1290
 Red. masses --      4.1740                 4.6182                 2.0679
 Frc consts  --      4.4727                 5.1446                 2.6332
 IR Inten    --    114.1445                16.3156                23.6629

                     37                     38                     39
                      A                      A                      A
 Frequencies --   1494.5999              1495.2698              1511.9905
 Red. masses --      1.0584                 1.5831                 1.0830
 Frc consts  --      1.3930                 2.0855                 1.4588
 IR Inten    --      8.2388                26.5541                69.4760

                     40                     41                     42
                      A                      A                      A
 Frequencies --   1557.1850              1623.3224              1650.1523
 Red. masses --      2.7877                 1.9026                 1.7386
 Frc consts  --      3.9827                 2.9539                 2.7893
 IR Inten    --    293.5421                15.8490               167.7551

                     43                     44                     45
                      A                      A                      A
 Frequencies --   1657.2192              1669.2624              3020.2175
 Red. masses --      1.7789                 2.3928                 1.0340
 Frc consts  --      2.8784                 3.9284                 5.5572
 IR Inten    --     96.3300                92.0405                77.8869

                     46                     47                     48
                      A                      A                      A
 Frequencies --   3082.6628              3149.1163              3172.5882
 Red. masses --      1.1063                 1.1008                 1.0890
 Frc consts  --      6.1940                 6.4317                 6.4581
 IR Inten    --     60.9808                36.5552                30.8045

                     49                     50                     51
                      A                      A                      A
 Frequencies --   3210.0878              3212.5703              3482.9723
 Red. masses --      1.0931                 1.0897                 1.0544
 Frc consts  --      6.6365                 6.6259                 7.5365
 IR Inten    --     14.2876                10.4897                 2.2693

                     52                     53                     54
                      A                      A                      A
 Frequencies --   3579.8197              3588.2197              3687.8225
 Red. masses --      1.0489                 1.0885                 1.0984
 Frc consts  --      7.9197                 8.2574                 8.8014
 IR Inten    --     34.2345                 8.1902                28.7311

 - Thermochemistry -
 -------------------
 Temperature   298.150 Kelvin.  Pressure   1.00000 Atm.
 Atom     1 has atomic number  7 and mass  14.00307

 Molecular mass:   138.07931 amu.
 Principal axes and moments of inertia in atomic units:
                           1         2         3
     Eigenvalues --   669.106891982.987292633.79771
           X            0.99972  -0.02298   0.00509
           Y            0.02294   0.99971   0.00719
           Z           -0.00525  -0.00707   0.99996
 This molecule is an asymmetric top.
 Rotational symmetry number  1.
 Warning -- assumption of classical behavior for rotation
           may cause significant error
 Rotational temperatures (Kelvin)      0.12945     0.04368     0.03289
 Rotational constants (GHZ):           2.69724     0.91011     0.68522
 Zero-point vibrational energy     436232.6 (Joules/Mol)
                                  104.26209 (Kcal/Mol)
 Warning -- explicit consideration of  15 degrees of freedom as
           vibrations may cause significant error
 Vibrational temperatures:    107.77   208.15   258.37   299.15   314.33
          (Kelvin)            364.41   383.18   470.53   529.91   558.74
                              654.15   697.18   751.97   773.32   856.32
                              907.81  1012.25  1041.86  1122.26  1143.07
                             1192.00  1231.75  1316.37  1404.42  1528.67
                             1569.79  1628.82  1681.46  1691.91  1729.46
                             1774.43  1819.92  1914.98  1940.33  1978.39
                             2115.19  2150.40  2151.36  2175.42  2240.44
                             2335.60  2374.20  2384.37  2401.70  4345.42
                             4435.26  4530.88  4564.65  4618.60  4622.17
                             5011.22  5150.56  5162.65  5305.95

 Zero-point correction=                           0.166152 (Hartree/Particle)
 Thermal correction to Energy=                    0.176124
 Thermal correction to Enthalpy=                  0.177068
 Thermal correction to Gibbs Free Energy=         0.131552
 Sum of electronic and zero-point Energies=           -457.338542
 Sum of electronic and thermal Energies=              -457.328571
 Sum of electronic and thermal Enthalpies=            -457.327626
 Sum of electronic and thermal Free Energies=         -457.373143

                     E (Thermal)             CV                S
                      KCal/Mol        Cal/Mol-Kelvin    Cal/Mol-Kelvin
 Total                  110.519             38.280             95.797
 Electronic               0.000              0.000              0.000
 Translational            0.889              2.981             40.680
 Rotational               0.889              2.981             29.637
 Vibrational            108.742             32.318             25.480
 Vibration     1          0.599              1.966              4.020
 Vibration     2          0.616              1.908              2.741
 Vibration     3          0.629              1.867              2.333
 Vibration     4          0.641              1.829              2.062
 Vibration     5          0.646              1.813              1.972
 Vibration     6          0.664              1.757              1.708
 Vibration     7          0.672              1.735              1.620
 Vibration     8          0.711              1.621              1.275
 Vibration     9          0.741              1.537              1.087
 Vibration    10          0.757              1.495              1.006
 Vibration    11          0.813              1.351              0.782
 Vibration    12          0.841              1.284              0.698
 Vibration    13          0.878              1.200              0.604
 Vibration    14          0.893              1.167              0.571
 Vibration    15          0.953              1.042              0.458

 Optimization completed.
    -- Stationary point found.
 Normal termination of Gaussian 16 at Thu Jul 11 18:30:25 2024.
 Gaussian 16:  EM64L-G16RevA.03 25-Dec-2016

 ----------------------------------------------------------------------
 # TD(NStates=10, Root=1) B3LYP/6-31G** SCRF=(Solvent=water) volume pop
 =NPA density=current Geom=AllCheck Guess=Read
 ----------------------------------------------------------------------

 Structure from the checkpoint file:  "AGAHETWGCFCMDK-UHFFFAOYSA-N_conf_1_2.chk"
 ----------------------------------
 AGAHETWGCFCMDK-UHFFFAOYSA-N_conf_1
 ----------------------------------
 Charge =  0 Multiplicity = 1

                         Standard orientation:
 ---------------------------------------------------------------------
 Center     Atomic      Atomic             Coordinates (Angstroms)
 Number     Number       Type             X           Y           Z
 ---------------------------------------------------------------------
      1          7           0        3.063605   -0.375878   -0.040174
      2          6           0        1.638268   -0.410181   -0.002271
      3          6           0        0.915014   -1.606476   -0.006928
      4          6           0       -0.478549   -1.627093   -0.018924
      5          6           0       -1.179437   -0.415683   -0.000284
      6          8           0       -2.548538   -0.513654    0.010370
      7          6           0       -3.308191    0.689076    0.019305
      8          6           0       -0.480792    0.795217    0.002018
      9          6           0        0.924844    0.810709   -0.017076
     10          7           0        1.607775    2.024630   -0.117542
     11          1           0        3.445965   -1.315509   -0.084039
     12          1           0        3.452870    0.059405    0.794897
     13          1           0        1.461372   -2.546801    0.005980
     14          1           0       -1.028184   -2.562186   -0.024349
     15          1           0       -3.099534    1.293215    0.910704
     16          1           0       -4.355786    0.385162    0.029661
     17          1           0       -3.117873    1.295019   -0.874966
     18          1           0       -1.006159    1.743428   -0.005720
     19          1           0        1.154713    2.815640    0.320047
     20          1           0        2.594329    1.987183    0.093798
 ---------------------------------------------------------------------

 SCF Done:  E(RB3LYP) =  -457.504694301     A.U. after    1 cycles

 Excitation energies and oscillator strengths:

 Excited State   1:      Singlet-A      4.5498 eV  272.51 nm  f=0.1671  <S**2>=0.000
      36 -> 39        -0.20276
      37 -> 38         0.66891
 This state for optimization and/or second-order correction.
 Total Energy, E(TD-HF/TD-DFT) =  -457.337493964
 Copying the excited state density for this state as the 1-particle RhoCI density.

 Excited State   2:      Singlet-A      5.3089 eV  233.54 nm  f=0.2605  <S**2>=0.000
      36 -> 38         0.20083
      37 -> 39         0.66747

 Excited State   3:      Singlet-A      5.8650 eV  211.40 nm  f=0.4025  <S**2>=0.000
      36 -> 38         0.65625
      37 -> 39        -0.20195

 Excited State   4:      Singlet-A      6.0826 eV  203.83 nm  f=0.0370  <S**2>=0.000
      36 -> 39        -0.13284
      37 -> 40         0.68509

 Excited State   5:      Singlet-A      6.2117 eV  199.60 nm  f=0.6335  <S**2>=0.000
      35 -> 38        -0.12300
      36 -> 39         0.64027
      37 -> 38         0.18344
      37 -> 40         0.14459

 Excited State   6:      Singlet-A      6.8078 eV  182.12 nm  f=0.0014  <S**2>=0.000
      37 -> 41         0.67345
      37 -> 42        -0.19632

 Excited State   7:      Singlet-A      6.8526 eV  180.93 nm  f=0.0915  <S**2>=0.000
      34 -> 38        -0.11771
      35 -> 38         0.67889
      36 -> 39         0.12170

 Excited State   8:      Singlet-A      7.0363 eV  176.21 nm  f=0.0064  <S**2>=0.000
      36 -> 40         0.29079
      37 -> 41         0.14715
      37 -> 42         0.57248
      37 -> 43        -0.23448

 Excited State   9:      Singlet-A      7.2391 eV  171.27 nm  f=0.0029  <S**2>=0.000
      36 -> 40         0.61609
      37 -> 42        -0.31249

 Excited State  10:      Singlet-A      7.3403 eV  168.91 nm  f=0.0345  <S**2>=0.000
      34 -> 38         0.10678
      35 -> 39         0.68605

 The electronic state is 1-A.
 Alpha  occ. eigenvalues --  -19.17241 -14.33425 -14.32898 -10.23893 -10.23262
 Alpha  occ. eigenvalues --  -10.22394 -10.20987 -10.18332 -10.17758 -10.17296
 Alpha  occ. eigenvalues --   -1.05497  -0.92467  -0.88220  -0.82258  -0.73224
 Alpha  occ. eigenvalues --   -0.72917  -0.67788  -0.60840  -0.58551  -0.53065
 Alpha  occ. eigenvalues --   -0.51780  -0.48937  -0.47916  -0.45956  -0.45856
 Alpha  occ. eigenvalues --   -0.44868  -0.42269  -0.40127  -0.39220  -0.38027
 Alpha  occ. eigenvalues --   -0.35433  -0.33914  -0.32764  -0.30080  -0.26994
 Alpha  occ. eigenvalues --   -0.21959  -0.18197
 Alpha virt. eigenvalues --    0.01106   0.02994   0.07841   0.10366   0.11091
 Alpha virt. eigenvalues --    0.11973   0.14092   0.15058   0.16476   0.17204
 Alpha virt. eigenvalues --    0.17701   0.18723   0.19163   0.20655   0.25607

 Mulliken charges:
               1
     1  N   -0.650495
     2  C    0.214178
     3  C   -0.201931
     4  C   -0.156069
     5  C    0.327833
     6  O   -0.518272
     7  C   -0.086828
     8  C   -0.242460
     9  C    0.215738
    10  N   -0.641330
    11  H    0.288922
    12  H    0.292928
    13  H    0.064416
    14  H    0.077116
    15  H    0.127140
    16  H    0.130879
    17  H    0.127664
    18  H    0.072972
    19  H    0.277596
    20  H    0.280005
 Sum of Mulliken charges =  -0.00000

 Dipole moment (field-independent basis, Debye):
    X=              2.5756    Y=              2.8376    Z=              2.3768  Tot=              4.5094
 Quadrupole moment (field-independent basis, Debye-Ang):
   XX=            -39.7603   YY=            -51.8464   ZZ=            -62.6772
   XY=             -4.7607   XZ=              6.3580   YZ=              3.1863

 Summary of Natural Population Analysis:

                                       Natural Population
                Natural  -----------------------------------------------
    Atom  No    Charge         Core      Valence    Rydberg      Total
 -----------------------------------------------------------------------
      N    1   -0.81011      1.99953     5.79807    0.01251     7.81011
      C    2    0.14190      1.99889     3.84119    0.01802     5.85810
      C    3   -0.39730      1.99907     4.37823    0.02000     6.39730
      C    4   -0.30420      1.99905     4.28621    0.01893     6.30420
      C    5    0.32696      1.99878     3.65083    0.02343     5.67304
      O    6   -0.49926      1.99975     6.48802    0.01148     8.49926
      C    7   -0.33356      1.99942     4.32073    0.01341     6.33356
      C    8   -0.48154      1.99900     4.46426    0.01829     6.48154
      C    9    0.11519      1.99893     3.86550    0.02038     5.88481
      N   10   -0.79202      1.99951     5.77968    0.01284     7.79202
      H   11    0.41838      0.00000     0.57914    0.00248     0.58162
      H   12    0.41635      0.00000     0.58060    0.00304     0.58365
      H   13    0.22887      0.00000     0.76952    0.00161     0.77113
      H   14    0.24005      0.00000     0.75790    0.00205     0.75995
      H   15    0.21686      0.00000     0.78079    0.00235     0.78314
      H   16    0.23492      0.00000     0.76407    0.00101     0.76508
      H   17    0.21706      0.00000     0.78065    0.00229     0.78294
      H   18    0.23488      0.00000     0.76347    0.00165     0.76512
      H   19    0.41150      0.00000     0.58353    0.00497     0.58850
      H   20    0.41509      0.00000     0.58209    0.00282     0.58491
 =======================================================================
   * Total *    0.00000     19.99195    53.81448    0.19357    74.00000

 Normal termination of Gaussian 16 at Thu Jul 11 18:50:58 2024.
