 Gaussian 16, Revision A.03,

 -------------------------------------------------------
 # opt=CalcFc B3LYP/6-31G** SCRF=(Solvent=water) scf=xqc
 -------------------------------------------------------

 ----------------------------------
 IUNMPGNGSSIWFP-UHFFFAOYSA-N_conf_0
 ----------------------------------
 Symbolic Z-matrix:
 Charge =  0 Multiplicity = 1

 SCF Done:  E(RB3LYP) =  -308.467114433     A.U. after   11 cycles
 SCF Done:  E(RB3LYP) =  -308.468631011     A.U. after    9 cycles
 SCF Done:  E(RB3LYP) =  -308.468646616     A.U. after    8 cycles
 SCF Done:  E(RB3LYP) =  -308.468652563     A.U. after    8 cycles
 SCF Done:  E(RB3LYP) =  -308.468653136     A.U. after    7 cycles
 SCF Done:  E(RB3LYP) =  -308.468652966     A.U. after    6 cycles
 SCF Done:  E(RB3LYP) =  -308.468653061     A.U. after    6 cycles
 Optimization completed.
    -- Stationary point found.
 Normal termination of Gaussian 16 at Thu Jul 11 19:36:25 2024.

 ----------------------------------------------------------------------
 # freq B3LYP/6-31G** SCRF=(Solvent=water) volume NMR pop=NPA density=c
 urrent Geom=AllCheck Guess=Read
 ----------------------------------------------------------------------

 Structure from the checkpoint file:  "IUNMPGNGSSIWFP-UHFFFAOYSA-N_conf_0_1.chk"
 ----------------------------------
 IUNMPGNGSSIWFP-UHFFFAOYSA-N_conf_0
 ----------------------------------
 Charge =  0 Multiplicity = 1

 SCF Done:  E(RB3LYP) =  -308.468653061     A.U. after    1 cycles

      1  N    Isotropic =   234.2466   Anisotropy =    26.6583

      2  C    Isotropic =   148.3991   Anisotropy =    25.3321

      3  C    Isotropic =   159.1289   Anisotropy =    22.0243

      4  C    Isotropic =   134.5302   Anisotropy =    58.9266

      5  N    Isotropic =   222.9940   Anisotropy =    39.5091

      6  C    Isotropic =   145.1598   Anisotropy =    68.1935

      7  C    Isotropic =   150.2603   Anisotropy =    58.6822

      8  H    Isotropic =    31.0638   Anisotropy =    15.7490

      9  H    Isotropic =    31.3618   Anisotropy =    11.2862

     10  H    Isotropic =    29.1235   Anisotropy =     7.9584

     11  H    Isotropic =    28.7711   Anisotropy =     7.3811

     12  H    Isotropic =    30.4524   Anisotropy =     6.7736

     13  H    Isotropic =    29.9606   Anisotropy =     5.0411

     14  H    Isotropic =    29.6039   Anisotropy =     5.6081

     15  H    Isotropic =    29.5767   Anisotropy =     5.6238

     16  H    Isotropic =    29.7868   Anisotropy =     8.2697

     17  H    Isotropic =    29.5136   Anisotropy =    10.0053

     18  H    Isotropic =    29.5236   Anisotropy =     9.5059

     19  H    Isotropic =    30.2075   Anisotropy =     8.1697

     20  H    Isotropic =    29.2130   Anisotropy =     8.3762

     21  H    Isotropic =    29.6748   Anisotropy =     9.6394

  Exact polarizability:  97.213   0.257  84.182  -0.631  -0.766  82.570
 Approx polarizability:  96.221   0.330  90.285   0.531  -0.655  91.225

                      1                      2                      3
                      A                      A                      A
 Frequencies --     51.3106                96.2074               136.8303
 Red. masses --      2.6983                 2.6405                 2.4464
 Frc consts  --      0.0042                 0.0144                 0.0270
 IR Inten    --      2.3223                 4.2260                 0.3710

                      4                      5                      6
                      A                      A                      A
 Frequencies --    194.0328               244.0050               257.1454
 Red. masses --      1.5654                 1.3518                 1.0797
 Frc consts  --      0.0347                 0.0474                 0.0421
 IR Inten    --     22.9021                39.5516                 3.8695

                      7                      8                      9
                      A                      A                      A
 Frequencies --    273.2529               313.6671               378.3565
 Red. masses --      1.1920                 2.0275                 2.1999
 Frc consts  --      0.0524                 0.1175                 0.1855
 IR Inten    --      5.9306                20.8353                 8.8174

                     10                     11                     12
                      A                      A                      A
 Frequencies --    426.9706               443.0386               511.8449
 Red. masses --      2.4555                 2.4076                 2.3741
 Frc consts  --      0.2637                 0.2784                 0.3665
 IR Inten    --      1.7796                 7.6560                11.0767

                     13                     14                     15
                      A                      A                      A
 Frequencies --    780.5033               840.0659               868.6831
 Red. masses --      1.2758                 2.1015                 2.2300
 Frc consts  --      0.4579                 0.8738                 0.9915
 IR Inten    --      2.9914                 8.6847                95.1874

                     16                     17                     18
                      A                      A                      A
 Frequencies --    916.1965               937.9231              1028.9384
 Red. masses --      1.4881                 1.8156                 2.0813
 Frc consts  --      0.7360                 0.9410                 1.2982
 IR Inten    --    117.9519                 8.6870                15.8655

                     19                     20                     21
                      A                      A                      A
 Frequencies --   1058.9297              1069.8120              1099.4744
 Red. masses --      1.7283                 2.0458                 2.1736
 Frc consts  --      1.1419                 1.3795                 1.5481
 IR Inten    --     30.0558                22.3356                16.4097

                     22                     23                     24
                      A                      A                      A
 Frequencies --   1121.9239              1125.0812              1168.4938
 Red. masses --      1.5391                 1.5042                 1.2972
 Frc consts  --      1.1414                 1.1219                 1.0436
 IR Inten    --     11.5158                 7.4881                 9.0909

                     25                     26                     27
                      A                      A                      A
 Frequencies --   1187.5031              1224.3467              1274.5709
 Red. masses --      1.4467                 1.7858                 1.5898
 Frc consts  --      1.2020                 1.5772                 1.5217
 IR Inten    --     29.5129                21.8544                 5.9513

                     28                     29                     30
                      A                      A                      A
 Frequencies --   1299.2834              1335.3742              1349.5986
 Red. masses --      2.4075                 1.3162                 1.1964
 Frc consts  --      2.3946                 1.3829                 1.2839
 IR Inten    --     17.8754                 6.0226                10.4995

                     31                     32                     33
                      A                      A                      A
 Frequencies --   1364.7303              1425.7962              1431.2665
 Red. masses --      1.2116                 1.4468                 1.4001
 Frc consts  --      1.3295                 1.7329                 1.6898
 IR Inten    --      7.5319                18.1769                24.6393

                     34                     35                     36
                      A                      A                      A
 Frequencies --   1451.0481              1478.9529              1487.2923
 Red. masses --      1.1634                 1.1681                 1.0989
 Frc consts  --      1.4433                 1.5054                 1.4322
 IR Inten    --      3.7399                 1.3752                 5.4446

                     37                     38                     39
                      A                      A                      A
 Frequencies --   1490.5591              1500.6337              1506.4127
 Red. masses --      1.0563                 1.0523                 1.0480
 Frc consts  --      1.3827                 1.3962                 1.4012
 IR Inten    --     12.9239                 6.8639                 8.1716

                     40                     41                     42
                      A                      A                      A
 Frequencies --   1515.3013              1516.8556              1520.2157
 Red. masses --      1.0725                 1.0874                 1.0823
 Frc consts  --      1.4509                 1.4741                 1.4737
 IR Inten    --      7.3261                 3.6030                 9.1782

                     43                     44                     45
                      A                      A                      A
 Frequencies --   1660.9725              2909.1961              2925.3461
 Red. masses --      1.0862                 1.0712                 1.0603
 Frc consts  --      1.7656                 5.3417                 5.3462
 IR Inten    --     44.9798                93.9955                65.0078

                     46                     47                     48
                      A                      A                      A
 Frequencies --   2934.1066              2954.6887              3040.2257
 Red. masses --      1.0624                 1.0730                 1.0623
 Frc consts  --      5.3886                 5.5191                 5.7852
 IR Inten    --    265.7127               114.8584                20.4172

                     49                     50                     51
                      A                      A                      A
 Frequencies --   3045.1183              3067.2972              3067.7820
 Red. masses --      1.0861                 1.0729                 1.0864
 Frc consts  --      5.9338                 5.9471                 6.0243
 IR Inten    --     46.3675                70.3171                62.2124

                     52                     53                     54
                      A                      A                      A
 Frequencies --   3079.1845              3089.7280              3113.2215
 Red. masses --      1.0729                 1.1027                 1.1041
 Frc consts  --      5.9938                 6.2020                 6.3048
 IR Inten    --     63.4897                79.3927                56.1102

                     55                     56                     57
                      A                      A                      A
 Frequencies --   3128.5173              3485.8226              3560.6182
 Red. masses --      1.1014                 1.0510                 1.0914
 Frc consts  --      6.3514                 7.5239                 8.1520
 IR Inten    --     50.4409                 0.9943                 0.0125

 - Thermochemistry -
 -------------------
 Temperature   298.150 Kelvin.  Pressure   1.00000 Atm.
 Atom     1 has atomic number  7 and mass  14.00307

 Molecular mass:   102.11570 amu.
 Principal axes and moments of inertia in atomic units:
                           1         2         3
     Eigenvalues --   333.556201575.859491662.23435
           X            0.99992  -0.00338  -0.01208
           Y            0.00322   0.99990  -0.01347
           Z            0.01213   0.01343   0.99984
 This molecule is an asymmetric top.
 Rotational symmetry number  1.
 Rotational temperatures (Kelvin)      0.25967     0.05496     0.05211
 Rotational constants (GHZ):           5.41061     1.14524     1.08573
 Zero-point vibrational energy     512984.2 (Joules/Mol)
                                  122.60616 (Kcal/Mol)
 Warning -- explicit consideration of  12 degrees of freedom as
           vibrations may cause significant error
 Vibrational temperatures:     73.82   138.42   196.87   279.17   351.07
          (Kelvin)            369.97   393.15   451.30   544.37   614.32
                              637.43   736.43  1122.97  1208.67  1249.84
                             1318.20  1349.46  1480.41  1523.56  1539.22
                             1581.90  1614.20  1618.74  1681.20  1708.55
                             1761.56  1833.82  1869.38  1921.31  1941.77
                             1963.54  2051.40  2059.27  2087.73  2127.88
                             2139.88  2144.58  2159.08  2167.39  2180.18
                             2182.42  2187.25  2389.77  4185.68  4208.92
                             4221.52  4251.14  4374.21  4381.25  4413.16
                             4413.85  4430.26  4445.43  4479.23  4501.24
                             5015.32  5122.94

 Zero-point correction=                           0.195385 (Hartree/Particle)
 Thermal correction to Energy=                    0.204593
 Thermal correction to Enthalpy=                  0.205537
 Thermal correction to Gibbs Free Energy=         0.161484
 Sum of electronic and zero-point Energies=           -308.273268
 Sum of electronic and thermal Energies=              -308.264060
 Sum of electronic and thermal Enthalpies=            -308.263116
 Sum of electronic and thermal Free Energies=         -308.307169

                     E (Thermal)             CV                S
                      KCal/Mol        Cal/Mol-Kelvin    Cal/Mol-Kelvin
 Total                  128.384             32.828             92.717
 Electronic               0.000              0.000              0.000
 Translational            0.889              2.981             39.780
 Rotational               0.889              2.981             28.259
 Vibrational            126.607             26.866             24.678
 Vibration     1          0.596              1.977              4.766
 Vibration     2          0.603              1.952              3.530
 Vibration     3          0.614              1.917              2.848
 Vibration     4          0.635              1.848              2.189
 Vibration     5          0.659              1.773              1.773
 Vibration     6          0.667              1.751              1.681
 Vibration     7          0.676              1.723              1.576
 Vibration     8          0.702              1.648              1.343
 Vibration     9          0.749              1.516              1.046
 Vibration    10          0.789              1.412              0.869
 Vibration    11          0.803              1.376              0.817
 Vibration    12          0.867              1.224              0.629

 Optimization completed.
    -- Stationary point found.
 Normal termination of Gaussian 16 at Thu Jul 11 19:48:16 2024.
 Gaussian 16:  EM64L-G16RevA.03 25-Dec-2016

 ----------------------------------------------------------------------
 # TD(NStates=10, Root=1) B3LYP/6-31G** SCRF=(Solvent=water) volume pop
 =NPA density=current Geom=AllCheck Guess=Read
 ----------------------------------------------------------------------

 Structure from the checkpoint file:  "IUNMPGNGSSIWFP-UHFFFAOYSA-N_conf_0_2.chk"
 ----------------------------------
 IUNMPGNGSSIWFP-UHFFFAOYSA-N_conf_0
 ----------------------------------
 Charge =  0 Multiplicity = 1

                         Standard orientation:
 ---------------------------------------------------------------------
 Center     Atomic      Atomic             Coordinates (Angstroms)
 Number     Number       Type             X           Y           Z
 ---------------------------------------------------------------------
      1          7           0        2.795369   -0.147015    0.858275
      2          6           0        2.329657   -0.040420   -0.535435
      3          6           0        0.907910    0.525891   -0.621892
      4          6           0       -0.155231   -0.412903   -0.040355
      5          7           0       -1.531900    0.019115   -0.310215
      6          6           0       -2.478928   -1.045605    0.008802
      7          6           0       -1.883318    1.240705    0.409594
      8          1           0        3.777045   -0.417740    0.855582
      9          1           0        2.313503   -0.918495    1.315977
     10          1           0        3.008669    0.643666   -1.056879
     11          1           0        2.368926   -0.997757   -1.084341
     12          1           0        0.663618    0.710480   -1.675336
     13          1           0        0.892531    1.494089   -0.108886
     14          1           0       -0.030258   -1.402442   -0.498579
     15          1           0        0.010214   -0.545464    1.047773
     16          1           0       -2.473389   -1.328173    1.079214
     17          1           0       -3.494407   -0.726286   -0.246682
     18          1           0       -2.245349   -1.940636   -0.576494
     19          1           0       -1.811385    1.128638    1.508937
     20          1           0       -1.232032    2.065746    0.111395
     21          1           0       -2.912515    1.523665    0.167616
 ---------------------------------------------------------------------

 SCF Done:  E(RB3LYP) =  -308.468653061     A.U. after    1 cycles

 Excitation energies and oscillator strengths:

 Excited State   1:      Singlet-A      7.0473 eV  175.93 nm  f=0.0669  <S**2>=0.000
      29 -> 30         0.45368
      29 -> 31         0.53957
 This state for optimization and/or second-order correction.
 Total Energy, E(TD-HF/TD-DFT) =  -308.209670821
 Copying the excited state density for this state as the 1-particle RhoCI density.

 Excited State   2:      Singlet-A      7.3381 eV  168.96 nm  f=0.0489  <S**2>=0.000
      28 -> 30         0.11933
      29 -> 30         0.52738
      29 -> 31        -0.44453

 Excited State   3:      Singlet-A      7.3910 eV  167.75 nm  f=0.0111  <S**2>=0.000
      28 -> 30         0.65700
      28 -> 31        -0.21366

 Excited State   4:      Singlet-A      8.1195 eV  152.70 nm  f=0.0019  <S**2>=0.000
      29 -> 32         0.60730
      29 -> 33         0.34120

 Excited State   5:      Singlet-A      8.2408 eV  150.45 nm  f=0.0699  <S**2>=0.000
      28 -> 31        -0.12229
      29 -> 32        -0.29545
      29 -> 33         0.58459
      29 -> 34        -0.18560

 Excited State   6:      Singlet-A      8.2649 eV  150.01 nm  f=0.0246  <S**2>=0.000
      28 -> 30         0.21410
      28 -> 31         0.65268
      29 -> 33         0.10532

 Excited State   7:      Singlet-A      8.4615 eV  146.53 nm  f=0.0140  <S**2>=0.000
      29 -> 32        -0.17375
      29 -> 33         0.13746
      29 -> 34         0.60354
      29 -> 35        -0.28216

 Excited State   8:      Singlet-A      8.6702 eV  143.00 nm  f=0.0206  <S**2>=0.000
      28 -> 32         0.64701
      28 -> 33        -0.17378
      28 -> 34        -0.16376

 Excited State   9:      Singlet-A      8.8308 eV  140.40 nm  f=0.0520  <S**2>=0.000
      29 -> 34         0.23053
      29 -> 35         0.55333
      29 -> 36        -0.33030
      29 -> 37         0.13713

 Excited State  10:      Singlet-A      9.0224 eV  137.42 nm  f=0.1167  <S**2>=0.000
      28 -> 32         0.16093
      28 -> 33         0.67359

 The electronic state is 1-A.
 Alpha  occ. eigenvalues --  -14.32292 -14.30941 -10.20352 -10.20179 -10.19707
 Alpha  occ. eigenvalues --  -10.19638 -10.17515  -0.91403  -0.87368  -0.75616
 Alpha  occ. eigenvalues --   -0.69841  -0.67330  -0.59998  -0.56309  -0.48877
 Alpha  occ. eigenvalues --   -0.47829  -0.45437  -0.44823  -0.44479  -0.40290
 Alpha  occ. eigenvalues --   -0.39066  -0.38044  -0.37030  -0.36106  -0.34390
 Alpha  occ. eigenvalues --   -0.33049  -0.32334  -0.23744  -0.21207
 Alpha virt. eigenvalues --    0.08277   0.09209   0.12142   0.12826   0.13926
 Alpha virt. eigenvalues --    0.15189   0.15969   0.16186   0.16813   0.18342
 Alpha virt. eigenvalues --    0.18593   0.19492   0.19805   0.21791   0.23466

 Mulliken charges:
               1
     1  N   -0.630449
     2  C   -0.058873
     3  C   -0.178286
     4  C    0.039758
     5  N   -0.189964
     6  C   -0.119302
     7  C   -0.108432
     8  H    0.240369
     9  H    0.227819
    10  H    0.105030
    11  H    0.080272
    12  H    0.101837
    13  H    0.077625
    14  H   -0.014009
    15  H    0.046114
    16  H    0.107878
    17  H    0.045970
    18  H    0.029640
    19  H    0.103089
    20  H    0.083039
    21  H    0.010875
 Sum of Mulliken charges =  -0.00000

 Dipole moment (field-independent basis, Debye):
    X=              0.0210    Y=             -0.7649    Z=             -0.6025  Tot=              0.9739
 Quadrupole moment (field-independent basis, Debye-Ang):
   XX=            -47.2244   YY=            -49.1696   ZZ=            -49.3429
   XY=             -3.2157   XZ=             -2.9575   YZ=             -2.8933

 Summary of Natural Population Analysis:

                                       Natural Population
                Natural  -----------------------------------------------
    Atom  No    Charge         Core      Valence    Rydberg      Total
 -----------------------------------------------------------------------
      N    1   -0.93269      1.99968     5.91823    0.01478     7.93269
      C    2   -0.26248      1.99936     4.24887    0.01425     6.26248
      C    3   -0.49967      1.99931     4.48572    0.01464     6.49967
      C    4   -0.33683      1.99927     4.31590    0.02167     6.33683
      N    5   -0.02911      1.99931     5.02151    0.00829     7.02911
      C    6   -0.57181      1.99943     4.54712    0.02525     6.57181
      C    7   -0.56050      1.99941     4.53891    0.02219     6.56050
      H    8    0.38012      0.00000     0.61352    0.00636     0.61988
      H    9    0.36355      0.00000     0.62621    0.01024     0.63645
      H   10    0.23471      0.00000     0.76274    0.00254     0.76529
      H   11    0.20041      0.00000     0.79368    0.00590     0.79959
      H   12    0.24406      0.00000     0.75078    0.00516     0.75594
      H   13    0.21969      0.00000     0.76492    0.01539     0.78031
      H   14    0.15316      0.00000     0.80052    0.04632     0.84684
      H   15    0.19841      0.00000     0.75581    0.04579     0.80159
      H   16    0.23713      0.00000     0.73496    0.02791     0.76287
      H   17    0.18698      0.00000     0.78158    0.03144     0.81302
      H   18    0.17119      0.00000     0.79418    0.03463     0.82881
      H   19    0.23622      0.00000     0.73289    0.03089     0.76378
      H   20    0.20927      0.00000     0.77133    0.01940     0.79073
      H   21    0.15818      0.00000     0.80231    0.03950     0.84182
 =======================================================================
   * Total *   -0.00000     13.99577    43.56169    0.44255    58.00000

 1\1\GINC-CN11\SP\RB3LYP TD-FC\6-31G(d,p)\C5H14N2\QDUEZ\11-Jul-2024\0\\
 # TD(NStates=10, Root=1) B3LYP/6-31G** SCRF=(Solvent=water) volume pop
 =NPA density=current Geom=AllCheck Guess=Read\\IUNMPGNGSSIWFP-UHFFFAOY
 SA-N_conf_0\\0,1\N,0,2.7508404712,0.4809947893,1.0175402046\C,0,2.3799
 966211,-0.5847630959,0.0702749907\C,0,1.0713078396,-0.2689476778,-0.66
 26249198\C,0,-0.154687122,-0.2704022097,0.2575498971\N,0,-1.4305958898
 ,-0.1836640771,-0.4630173969\C,0,-2.5483688235,-0.4779804062,0.4292964
 03\C,0,-1.6221622418,1.116122825,-1.1015778572\H,0,3.6765728425,0.2795

 Normal termination of Gaussian 16 at Thu Jul 11 20:03:37 2024.
