 Gaussian 16, Revision A.03,

 -------------------------------------------------------
 # opt=CalcFc B3LYP/6-31G** SCRF=(Solvent=water) scf=xqc
 -------------------------------------------------------

 ----------------------------------
 IUNMPGNGSSIWFP-UHFFFAOYSA-N_conf_2
 ----------------------------------
 Symbolic Z-matrix:
 Charge =  0 Multiplicity = 1

 SCF Done:  E(RB3LYP) =  -308.463295242     A.U. after   11 cycles
 SCF Done:  E(RB3LYP) =  -308.465754464     A.U. after    9 cycles
 SCF Done:  E(RB3LYP) =  -308.465740903     A.U. after   11 cycles
 SCF Done:  E(RB3LYP) =  -308.465993745     A.U. after    9 cycles
 SCF Done:  E(RB3LYP) =  -308.466010453     A.U. after    8 cycles
 SCF Done:  E(RB3LYP) =  -308.466004706     A.U. after    8 cycles
 SCF Done:  E(RB3LYP) =  -308.466216165     A.U. after    9 cycles
 SCF Done:  E(RB3LYP) =  -308.467476060     A.U. after   11 cycles
 SCF Done:  E(RB3LYP) =  -308.446677618     A.U. after   10 cycles
 SCF Done:  E(RB3LYP) =  -308.468678943     A.U. after   10 cycles
 SCF Done:  E(RB3LYP) =  -308.469064315     A.U. after    8 cycles
 SCF Done:  E(RB3LYP) =  -308.469117117     A.U. after   10 cycles
 SCF Done:  E(RB3LYP) =  -308.469477147     A.U. after    9 cycles
 SCF Done:  E(RB3LYP) =  -308.469547262     A.U. after    9 cycles
 SCF Done:  E(RB3LYP) =  -308.469559842     A.U. after    9 cycles
 SCF Done:  E(RB3LYP) =  -308.469564196     A.U. after    8 cycles
 SCF Done:  E(RB3LYP) =  -308.469564349     A.U. after    7 cycles
 SCF Done:  E(RB3LYP) =  -308.469564455     A.U. after    6 cycles
 Optimization completed.
    -- Stationary point found.
 Normal termination of Gaussian 16 at Thu Jul 11 20:09:14 2024.

 ----------------------------------------------------------------------
 # freq B3LYP/6-31G** SCRF=(Solvent=water) volume NMR pop=NPA density=c
 urrent Geom=AllCheck Guess=Read
 ----------------------------------------------------------------------

 Structure from the checkpoint file:  "IUNMPGNGSSIWFP-UHFFFAOYSA-N_conf_2_1.chk"
 ----------------------------------
 IUNMPGNGSSIWFP-UHFFFAOYSA-N_conf_2
 ----------------------------------
 Charge =  0 Multiplicity = 1

 SCF Done:  E(RB3LYP) =  -308.469564455     A.U. after    1 cycles

      1  N    Isotropic =   236.0674   Anisotropy =    33.4048

      2  C    Isotropic =   151.9966   Anisotropy =    33.1981

      3  C    Isotropic =   161.1647   Anisotropy =    20.3041

      4  C    Isotropic =   138.0382   Anisotropy =    58.6786

      5  N    Isotropic =   228.2889   Anisotropy =    30.9508

      6  C    Isotropic =   151.0270   Anisotropy =    58.8875

      7  C    Isotropic =   145.0735   Anisotropy =    67.8781

      8  H    Isotropic =    31.1677   Anisotropy =    15.4248

      9  H    Isotropic =    31.8372   Anisotropy =    13.5296

     10  H    Isotropic =    28.9213   Anisotropy =     9.0454

     11  H    Isotropic =    28.8263   Anisotropy =     5.1287

     12  H    Isotropic =    30.6838   Anisotropy =     8.4580

     13  H    Isotropic =    30.1152   Anisotropy =     6.5475

     14  H    Isotropic =    29.9581   Anisotropy =     6.6870

     15  H    Isotropic =    28.6105   Anisotropy =     5.9945

     16  H    Isotropic =    30.3097   Anisotropy =     8.8309

     17  H    Isotropic =    29.2119   Anisotropy =     8.3564

     18  H    Isotropic =    29.6914   Anisotropy =     9.7337

     19  H    Isotropic =    29.4716   Anisotropy =    10.0445

     20  H    Isotropic =    29.4723   Anisotropy =     9.2559

     21  H    Isotropic =    29.7335   Anisotropy =     8.6514

  Exact polarizability:  94.089  -0.983  86.598  -1.674  -0.205  83.963
 Approx polarizability:  93.922  -1.781  92.286  -2.110  -0.379  91.818

                      1                      2                      3
                      A                      A                      A
 Frequencies --     45.0289                74.6982               149.3856
 Red. masses --      2.8612                 3.0982                 1.8008
 Frc consts  --      0.0034                 0.0102                 0.0237
 IR Inten    --      0.5217                 1.9599                16.0415

                      4                      5                      6
                      A                      A                      A
 Frequencies --    221.7956               247.9269               259.6618
 Red. masses --      1.9954                 1.1724                 1.1601
 Frc consts  --      0.0578                 0.0425                 0.0461
 IR Inten    --      1.8776                31.0951                 3.6073

                      7                      8                      9
                      A                      A                      A
 Frequencies --    270.5551               339.7038               391.1376
 Red. masses --      1.2637                 1.9898                 2.0219
 Frc consts  --      0.0545                 0.1353                 0.1823
 IR Inten    --     21.4649                12.4680                13.3714

                     10                     11                     12
                      A                      A                      A
 Frequencies --    425.4754               441.6982               545.1031
 Red. masses --      2.1210                 1.9507                 2.4990
 Frc consts  --      0.2262                 0.2242                 0.4375
 IR Inten    --      2.3161                 7.0561                 4.6520

                     13                     14                     15
                      A                      A                      A
 Frequencies --    756.4413               833.2428               854.0871
 Red. masses --      1.8765                 2.6072                 1.6001
 Frc consts  --      0.6326                 1.0665                 0.6877
 IR Inten    --     27.6169                 8.2854                95.0685

                     16                     17                     18
                      A                      A                      A
 Frequencies --    920.4458               956.9809              1025.5577
 Red. masses --      1.8523                 1.6986                 1.6432
 Frc consts  --      0.9246                 0.9165                 1.0183
 IR Inten    --    100.1609                17.1102                12.5797

                     19                     20                     21
                      A                      A                      A
 Frequencies --   1038.6689              1062.5529              1094.4213
 Red. masses --      1.9567                 1.6312                 2.1882
 Frc consts  --      1.2437                 1.0851                 1.5442
 IR Inten    --     29.0455                21.1709                 8.4288

                     22                     23                     24
                      A                      A                      A
 Frequencies --   1104.2925              1122.9429              1143.9774
 Red. masses --      1.8420                 1.2444                 1.3798
 Frc consts  --      1.3234                 0.9245                 1.0639
 IR Inten    --     22.9874                 5.5529                 9.2960

                     25                     26                     27
                      A                      A                      A
 Frequencies --   1182.7205              1231.1945              1294.9979
 Red. masses --      1.4834                 1.7701                 2.0554
 Frc consts  --      1.2226                 1.5809                 2.0309
 IR Inten    --     17.9438                37.8275                15.4211

                     28                     29                     30
                      A                      A                      A
 Frequencies --   1302.0758              1326.4984              1340.7948
 Red. masses --      1.5663                 1.3287                 1.2052
 Frc consts  --      1.5646                 1.3775                 1.2765
 IR Inten    --     30.1592                 4.9767                 3.5700

                     31                     32                     33
                      A                      A                      A
 Frequencies --   1387.5568              1413.0996              1430.2598
 Red. masses --      1.3421                 1.4663                 1.4146
 Frc consts  --      1.5224                 1.7251                 1.7049
 IR Inten    --     25.8146                 4.5009                11.1304

                     34                     35                     36
                      A                      A                      A
 Frequencies --   1449.5078              1475.3660              1484.0114
 Red. masses --      1.1581                 1.1668                 1.0685
 Frc consts  --      1.4336                 1.4964                 1.3864
 IR Inten    --      5.4459                 1.9816                 5.0645

                     37                     38                     39
                      A                      A                      A
 Frequencies --   1491.4045              1503.3870              1506.4517
 Red. masses --      1.0512                 1.0747                 1.0501
 Frc consts  --      1.3776                 1.4311                 1.4041
 IR Inten    --     15.4468                 7.3174                 8.1971

                     40                     41                     42
                      A                      A                      A
 Frequencies --   1511.0325              1514.1998              1517.4495
 Red. masses --      1.1063                 1.0863                 1.0585
 Frc consts  --      1.4882                 1.4675                 1.4360
 IR Inten    --      8.6688                14.7217                 8.7981

                     43                     44                     45
                      A                      A                      A
 Frequencies --   1654.6432              2912.1346              2923.1018
 Red. masses --      1.0881                 1.0724                 1.0605
 Frc consts  --      1.7552                 5.3585                 5.3388
 IR Inten    --     35.0500                89.8716                63.4450

                     46                     47                     48
                      A                      A                      A
 Frequencies --   2931.9297              2964.7722              3031.3700
 Red. masses --      1.0629                 1.0731                 1.0662
 Frc consts  --      5.3834                 5.5575                 5.7727
 IR Inten    --    300.9150               132.2242                58.1960

                     49                     50                     51
                      A                      A                      A
 Frequencies --   3066.2434              3068.2371              3077.9489
 Red. masses --      1.0708                 1.0915                 1.0738
 Frc consts  --      5.9316                 6.0541                 5.9939
 IR Inten    --     53.2514                 9.3115                44.7414

                     52                     53                     54
                      A                      A                      A
 Frequencies --   3081.9015              3092.6963              3113.1923
 Red. masses --      1.0902                 1.0893                 1.1036
 Frc consts  --      6.1007                 6.1387                 6.3021
 IR Inten    --     80.8114                57.3259                62.2153

                     55                     56                     57
                      A                      A                      A
 Frequencies --   3124.6274              3477.2861              3556.9382
 Red. masses --      1.1016                 1.0510                 1.0914
 Frc consts  --      6.3366                 7.4875                 8.1353
 IR Inten    --     50.7914                 1.6065                 0.0370

 - Thermochemistry -
 -------------------
 Temperature   298.150 Kelvin.  Pressure   1.00000 Atm.
 Atom     1 has atomic number  7 and mass  14.00307

 Molecular mass:   102.11570 amu.
 Principal axes and moments of inertia in atomic units:
                           1         2         3
     Eigenvalues --   412.435981279.897761441.70916
           X            0.99998   0.00619   0.00175
           Y           -0.00621   0.99990   0.01304
           Z           -0.00167  -0.01305   0.99991
 This molecule is an asymmetric top.
 Rotational symmetry number  1.
 Rotational temperatures (Kelvin)      0.21001     0.06767     0.06008
 Rotational constants (GHZ):           4.37581     1.41007     1.25181
 Zero-point vibrational energy     512987.5 (Joules/Mol)
                                  122.60696 (Kcal/Mol)
 Warning -- explicit consideration of  12 degrees of freedom as
           vibrations may cause significant error
 Vibrational temperatures:     64.79   107.47   214.93   319.11   356.71
          (Kelvin)            373.60   389.27   488.76   562.76   612.16
                              635.51   784.28  1088.35  1198.85  1228.84
                             1324.32  1376.88  1475.55  1494.41  1528.78
                             1574.63  1588.83  1615.66  1645.93  1701.67
                             1771.41  1863.21  1873.40  1908.54  1929.10
                             1996.38  2033.14  2057.82  2085.52  2122.72
                             2135.16  2145.80  2163.04  2167.45  2174.04
                             2178.60  2183.27  2380.66  4189.91  4205.69
                             4218.39  4265.65  4361.47  4411.64  4414.51
                             4428.48  4434.17  4449.70  4479.19  4495.64
                             5003.04  5117.64

 Zero-point correction=                           0.195387 (Hartree/Particle)
 Thermal correction to Energy=                    0.204532
 Thermal correction to Enthalpy=                  0.205476
 Thermal correction to Gibbs Free Energy=         0.161434
 Sum of electronic and zero-point Energies=           -308.274178
 Sum of electronic and thermal Energies=              -308.265032
 Sum of electronic and thermal Enthalpies=            -308.264088
 Sum of electronic and thermal Free Energies=         -308.308130

                     E (Thermal)             CV                S
                      KCal/Mol        Cal/Mol-Kelvin    Cal/Mol-Kelvin
 Total                  128.346             32.748             92.694
 Electronic               0.000              0.000              0.000
 Translational            0.889              2.981             39.780
 Rotational               0.889              2.981             28.122
 Vibrational            126.568             26.786             24.791
 Vibration     1          0.595              1.979              5.025
 Vibration     2          0.599              1.966              4.026
 Vibration     3          0.618              1.903              2.680
 Vibration     4          0.648              1.808              1.944
 Vibration     5          0.662              1.766              1.745
 Vibration     6          0.668              1.746              1.664
 Vibration     7          0.674              1.727              1.593
 Vibration     8          0.720              1.596              1.214
 Vibration     9          0.759              1.489              0.996
 Vibration    10          0.787              1.415              0.874
 Vibration    11          0.801              1.379              0.821
 Vibration    12          0.900              1.150              0.554

 Optimization completed.
    -- Stationary point found.
 Normal termination of Gaussian 16 at Thu Jul 11 20:24:48 2024.
 Gaussian 16:  EM64L-G16RevA.03 25-Dec-2016

 ----------------------------------------------------------------------
 # TD(NStates=10, Root=1) B3LYP/6-31G** SCRF=(Solvent=water) volume pop
 =NPA density=current Geom=AllCheck Guess=Read
 ----------------------------------------------------------------------

 Structure from the checkpoint file:  "IUNMPGNGSSIWFP-UHFFFAOYSA-N_conf_2_2.chk"
 ----------------------------------
 IUNMPGNGSSIWFP-UHFFFAOYSA-N_conf_2
 ----------------------------------
 Charge =  0 Multiplicity = 1

                         Standard orientation:
 ---------------------------------------------------------------------
 Center     Atomic      Atomic             Coordinates (Angstroms)
 Number     Number       Type             X           Y           Z
 ---------------------------------------------------------------------
      1          7           0       -2.533039    0.885739   -0.179192
      2          6           0       -1.886328   -0.383062   -0.552694
      3          6           0       -0.978720   -0.893682    0.571592
      4          6           0        0.216096    0.019010    0.875125
      5          7           0        1.164206    0.145667   -0.238554
      6          6           0        1.949921   -1.067949   -0.440898
      7          6           0        2.045293    1.293531   -0.048091
      8          1           0       -3.076497    1.228057   -0.969134
      9          1           0       -3.215042    0.703091    0.555851
     10          1           0       -2.605286   -1.177124   -0.815163
     11          1           0       -1.275429   -0.198412   -1.442885
     12          1           0       -1.567880   -0.997295    1.493323
     13          1           0       -0.639499   -1.905556    0.320606
     14          1           0        0.725635   -0.334748    1.793425
     15          1           0       -0.172148    1.019188    1.090233
     16          1           0        2.571565   -1.328579    0.437859
     17          1           0        1.299067   -1.919132   -0.655988
     18          1           0        2.617981   -0.935512   -1.297850
     19          1           0        2.709135    1.399553   -0.912384
     20          1           0        1.452246    2.209014    0.040960
     21          1           0        2.680405    1.210525    0.855165
 ---------------------------------------------------------------------

 SCF Done:  E(RB3LYP) =  -308.469564455     A.U. after    1 cycles

 Excitation energies and oscillator strengths:

 Excited State   1:      Singlet-A      6.9067 eV  179.51 nm  f=0.0412  <S**2>=0.000
      29 -> 30         0.67407
      29 -> 31        -0.20705
 This state for optimization and/or second-order correction.
 Total Energy, E(TD-HF/TD-DFT) =  -308.215746205
 Copying the excited state density for this state as the 1-particle RhoCI density.

 Excited State   2:      Singlet-A      7.3566 eV  168.53 nm  f=0.0168  <S**2>=0.000
      28 -> 30         0.64610
      28 -> 31         0.27293

 Excited State   3:      Singlet-A      7.6391 eV  162.30 nm  f=0.0378  <S**2>=0.000
      29 -> 30         0.20126
      29 -> 31         0.65277
      29 -> 32         0.16639

 Excited State   4:      Singlet-A      8.0520 eV  153.98 nm  f=0.0036  <S**2>=0.000
      29 -> 31        -0.15466
      29 -> 32         0.67587

 Excited State   5:      Singlet-A      8.3106 eV  149.19 nm  f=0.0027  <S**2>=0.000
      28 -> 30        -0.28426
      28 -> 31         0.62764
      28 -> 32        -0.11068

 Excited State   6:      Singlet-A      8.4302 eV  147.07 nm  f=0.0112  <S**2>=0.000
      29 -> 33         0.61584
      29 -> 34         0.30407

 Excited State   7:      Singlet-A      8.5795 eV  144.51 nm  f=0.0549  <S**2>=0.000
      29 -> 33        -0.31181
      29 -> 34         0.59832
      29 -> 35        -0.16113
      29 -> 38         0.10731

 Excited State   8:      Singlet-A      8.7292 eV  142.03 nm  f=0.2068  <S**2>=0.000
      29 -> 34         0.17833
      29 -> 35         0.63500
      29 -> 36        -0.21305

 Excited State   9:      Singlet-A      8.7821 eV  141.18 nm  f=0.0303  <S**2>=0.000
      28 -> 31         0.10377
      28 -> 32         0.63381
      28 -> 33         0.24100
      28 -> 36         0.10549

 Excited State  10:      Singlet-A      8.8278 eV  140.45 nm  f=0.0324  <S**2>=0.000
      28 -> 32        -0.23468
      28 -> 33         0.61026
      28 -> 34        -0.13545
      28 -> 38         0.15687

 The electronic state is 1-A.
 Alpha  occ. eigenvalues --  -14.32118 -14.30752 -10.19809 -10.19692 -10.19635
 Alpha  occ. eigenvalues --  -10.19581 -10.17483  -0.91234  -0.87084  -0.75328
 Alpha  occ. eigenvalues --   -0.69752  -0.66864  -0.60590  -0.55542  -0.48510
 Alpha  occ. eigenvalues --   -0.46803  -0.46584  -0.44752  -0.43033  -0.41104
 Alpha  occ. eigenvalues --   -0.38882  -0.37797  -0.36509  -0.36069  -0.34064
 Alpha  occ. eigenvalues --   -0.32974  -0.32245  -0.23386  -0.21008
 Alpha virt. eigenvalues --    0.08028   0.10380   0.12293   0.13407   0.14755
 Alpha virt. eigenvalues --    0.15327   0.15746   0.16403   0.16832   0.18188
 Alpha virt. eigenvalues --    0.18785   0.19178   0.20427   0.22081   0.23107

 Mulliken charges:
               1
     1  N   -0.590181
     2  C   -0.021206
     3  C   -0.159022
     4  C   -0.008892
     5  N   -0.182260
     6  C   -0.118430
     7  C   -0.150651
     8  H    0.182681
     9  H    0.180466
    10  H    0.043251
    11  H    0.064286
    12  H    0.059661
    13  H    0.040537
    14  H    0.091950
    15  H    0.056341
    16  H    0.118450
    17  H    0.056317
    18  H    0.042990
    19  H    0.086860
    20  H    0.066156
    21  H    0.140695
 Sum of Mulliken charges =  -0.00000

 Dipole moment (field-independent basis, Debye):
    X=              2.5293    Y=             -0.5693    Z=              0.2992  Tot=              2.6098
 Quadrupole moment (field-independent basis, Debye-Ang):
   XX=            -44.6388   YY=            -51.1297   ZZ=            -47.6447
   XY=              2.0086   XZ=              1.5517   YZ=             -0.6023

 Summary of Natural Population Analysis:

                                       Natural Population
                Natural  -----------------------------------------------
    Atom  No    Charge         Core      Valence    Rydberg      Total
 -----------------------------------------------------------------------
      N    1   -0.93807      1.99967     5.92261    0.01579     7.93807
      C    2   -0.26618      1.99937     4.25126    0.01555     6.26618
      C    3   -0.48912      1.99931     4.47601    0.01381     6.48912
      C    4   -0.33166      1.99926     4.31112    0.02127     6.33166
      N    5   -0.03651      1.99932     5.02825    0.00894     7.03651
      C    6   -0.56292      1.99941     4.54076    0.02275     6.56292
      C    7   -0.56292      1.99943     4.54101    0.02248     6.56292
      H    8    0.33853      0.00000     0.64182    0.01965     0.66147
      H    9    0.33871      0.00000     0.63890    0.02239     0.66129
      H   10    0.17961      0.00000     0.80724    0.01314     0.82039
      H   11    0.19815      0.00000     0.78795    0.01390     0.80185
      H   12    0.21236      0.00000     0.77179    0.01585     0.78764
      H   13    0.19469      0.00000     0.78167    0.02364     0.80531
      H   14    0.23510      0.00000     0.73472    0.03018     0.76490
      H   15    0.20679      0.00000     0.76442    0.02879     0.79321
      H   16    0.24607      0.00000     0.72906    0.02487     0.75393
      H   17    0.18777      0.00000     0.78351    0.02872     0.81223
      H   18    0.18182      0.00000     0.78720    0.03098     0.81818
      H   19    0.21560      0.00000     0.76223    0.02217     0.78440
      H   20    0.19379      0.00000     0.77969    0.02651     0.80621
      H   21    0.25838      0.00000     0.72234    0.01928     0.74162
 =======================================================================
   * Total *   -0.00000     13.99576    43.56357    0.44067    58.00000

 1\1\GINC-CN34\SP\RB3LYP TD-FC\6-31G(d,p)\C5H14N2\QDUEZ\11-Jul-2024\0\\
 # TD(NStates=10, Root=1) B3LYP/6-31G** SCRF=(Solvent=water) volume pop
 =NPA density=current Geom=AllCheck Guess=Read\\IUNMPGNGSSIWFP-UHFFFAOY
 SA-N_conf_2\\0,1\N,0,2.7331420417,0.4686277531,0.0539933456\C,0,1.9207
 328118,-0.7141460155,0.3835853219\C,0,0.8131820754,-0.9312685648,-0.65
 3089761\C,0,-0.229129413,0.1930288595,-0.7006853505\N,0,-1.0044243685,
 0.3364260575,0.5376965459\C,0,-1.962836296,-0.7490926405,0.72276409\C,
 0,-1.6855145142,1.626496363,0.5825937221\H,0,3.4163050275,0.6203564296

 Normal termination of Gaussian 16 at Thu Jul 11 20:43:33 2024.
