 Gaussian 16, Revision A.03,

 -------------------------------------------------------
 # opt=CalcFc B3LYP/6-31G** SCRF=(Solvent=water) scf=xqc
 -------------------------------------------------------

 ----------------------------------
 IUNMPGNGSSIWFP-UHFFFAOYSA-N_conf_1
 ----------------------------------
 Symbolic Z-matrix:
 Charge =  0 Multiplicity = 1

 SCF Done:  E(RB3LYP) =  -308.467527706     A.U. after   11 cycles
 SCF Done:  E(RB3LYP) =  -308.469302623     A.U. after    9 cycles
 SCF Done:  E(RB3LYP) =  -308.469341225     A.U. after    9 cycles
 SCF Done:  E(RB3LYP) =  -308.469341501     A.U. after    7 cycles
 SCF Done:  E(RB3LYP) =  -308.469341517     A.U. after    6 cycles
 Optimization completed.
    -- Stationary point found.
 Normal termination of Gaussian 16 at Thu Jul 11 19:38:13 2024.

 ----------------------------------------------------------------------
 # freq B3LYP/6-31G** SCRF=(Solvent=water) volume NMR pop=NPA density=c
 urrent Geom=AllCheck Guess=Read
 ----------------------------------------------------------------------

 Structure from the checkpoint file:  "IUNMPGNGSSIWFP-UHFFFAOYSA-N_conf_1_1.chk"
 ----------------------------------
 IUNMPGNGSSIWFP-UHFFFAOYSA-N_conf_1
 ----------------------------------
 Charge =  0 Multiplicity = 1

 SCF Done:  E(RB3LYP) =  -308.469341517     A.U. after    1 cycles

      1  N    Isotropic =   233.5129   Anisotropy =    32.6642

      2  C    Isotropic =   148.5055   Anisotropy =    36.3318

      3  C    Isotropic =   158.1621   Anisotropy =    28.2820

      4  C    Isotropic =   134.5052   Anisotropy =    58.4142

      5  N    Isotropic =   222.8197   Anisotropy =    40.0139

      6  C    Isotropic =   145.1637   Anisotropy =    68.1954

      7  C    Isotropic =   150.2909   Anisotropy =    58.7238

      8  H    Isotropic =    31.0441   Anisotropy =    15.5072

      9  H    Isotropic =    31.5933   Anisotropy =    12.2348

     10  H    Isotropic =    28.8815   Anisotropy =     6.1315

     11  H    Isotropic =    29.3022   Anisotropy =     5.6001

     12  H    Isotropic =    30.3222   Anisotropy =     5.2348

     13  H    Isotropic =    30.1542   Anisotropy =     4.0467

     14  H    Isotropic =    29.8272   Anisotropy =     4.4543

     15  H    Isotropic =    29.5013   Anisotropy =     5.8248

     16  H    Isotropic =    29.8219   Anisotropy =     8.3054

     17  H    Isotropic =    29.5266   Anisotropy =     9.9615

     18  H    Isotropic =    29.5371   Anisotropy =     9.4935

     19  H    Isotropic =    30.2251   Anisotropy =     8.3100

     20  H    Isotropic =    29.6673   Anisotropy =     9.5312

     21  H    Isotropic =    29.2076   Anisotropy =     8.2565

  Exact polarizability:  98.417  -0.263  87.301  -0.126   0.623  77.852
 Approx polarizability:  95.921   0.072  93.823   0.062   0.835  87.116

                      1                      2                      3
                      A                      A                      A
 Frequencies --     52.5382                81.6535               135.4794
 Red. masses --      1.8220                 2.6998                 2.8609
 Frc consts  --      0.0030                 0.0106                 0.0309
 IR Inten    --      5.6215                 0.7418                 1.9919

                      4                      5                      6
                      A                      A                      A
 Frequencies --    146.6092               249.5658               255.5173
 Red. masses --      2.0583                 1.1336                 1.1203
 Frc consts  --      0.0261                 0.0416                 0.0431
 IR Inten    --      1.9979                50.4514                11.8782

                      7                      8                      9
                      A                      A                      A
 Frequencies --    265.3475               324.1609               341.0220
 Red. masses --      1.1373                 2.8249                 2.7135
 Frc consts  --      0.0472                 0.1749                 0.1859
 IR Inten    --      2.7732                 0.3527                10.4234

                     10                     11                     12
                      A                      A                      A
 Frequencies --    384.0592               475.2309               506.6016
 Red. masses --      2.1815                 2.3589                 2.8939
 Frc consts  --      0.1896                 0.3139                 0.4376
 IR Inten    --     12.3461                 0.9518                17.6662

                     13                     14                     15
                      A                      A                      A
 Frequencies --    770.1378               846.8442               866.6518
 Red. masses --      1.0940                 3.0424                 1.3372
 Frc consts  --      0.3823                 1.2855                 0.5917
 IR Inten    --      4.7169                 9.2887                98.3809

                     16                     17                     18
                      A                      A                      A
 Frequencies --    919.6977               990.7579              1027.3097
 Red. masses --      1.3311                 2.4155                 2.4867
 Frc consts  --      0.6633                 1.3970                 1.5463
 IR Inten    --    113.1521                11.5273                22.1223

                     19                     20                     21
                      A                      A                      A
 Frequencies --   1060.1285              1074.7643              1083.5014
 Red. masses --      1.6493                 2.2763                 2.5318
 Frc consts  --      1.0921                 1.5492                 1.7512
 IR Inten    --     23.0299                22.2494                15.8789

                     22                     23                     24
                      A                      A                      A
 Frequencies --   1123.9175              1133.0539              1153.9014
 Red. masses --      1.2648                 1.6390                 1.3612
 Frc consts  --      0.9413                 1.2397                 1.0678
 IR Inten    --      7.3491                13.6303                15.2659

                     25                     26                     27
                      A                      A                      A
 Frequencies --   1194.2261              1252.6428              1264.3853
 Red. masses --      1.6759                 1.6240                 1.6337
 Frc consts  --      1.4082                 1.5014                 1.5388
 IR Inten    --     33.8708                10.4189                 9.4853

                     28                     29                     30
                      A                      A                      A
 Frequencies --   1299.5246              1330.7993              1341.7797
 Red. masses --      2.3765                 1.0726                 1.3444
 Frc consts  --      2.3646                 1.1193                 1.4261
 IR Inten    --     15.6939                 3.2807                10.6691

                     31                     32                     33
                      A                      A                      A
 Frequencies --   1349.9708              1424.0446              1438.0927
 Red. masses --      1.2562                 1.3874                 1.4759
 Frc consts  --      1.3488                 1.6577                 1.7983
 IR Inten    --      2.3330                12.4935                35.3623

                     34                     35                     36
                      A                      A                      A
 Frequencies --   1451.1845              1479.9542              1490.6781
 Red. masses --      1.1679                 1.1735                 1.0523
 Frc consts  --      1.4492                 1.5143                 1.3778
 IR Inten    --      2.4366                 0.6964                12.0661

                     37                     38                     39
                      A                      A                      A
 Frequencies --   1494.1725              1502.2806              1506.6593
 Red. masses --      1.0850                 1.0591                 1.0478
 Frc consts  --      1.4272                 1.4083                 1.4014
 IR Inten    --      3.7582                 5.3045                 9.0734

                     40                     41                     42
                      A                      A                      A
 Frequencies --   1513.8583              1518.3592              1529.7328
 Red. masses --      1.0861                 1.0639                 1.0941
 Frc consts  --      1.4665                 1.4450                 1.5085
 IR Inten    --      8.9420                 9.0131                 1.0783

                     43                     44                     45
                      A                      A                      A
 Frequencies --   1655.9287              2903.5005              2925.3577
 Red. masses --      1.0871                 1.0720                 1.0603
 Frc consts  --      1.7563                 5.3247                 5.3460
 IR Inten    --     35.3756                90.6911                64.5280

                     46                     47                     48
                      A                      A                      A
 Frequencies --   2933.8674              2957.0841              3033.2025
 Red. masses --      1.0623                 1.0721                 1.0640
 Frc consts  --      5.3871                 5.5235                 5.7676
 IR Inten    --    245.0106               138.1892                16.2677

                     49                     50                     51
                      A                      A                      A
 Frequencies --   3048.2941              3050.8348              3067.4824
 Red. masses --      1.0888                 1.0831                 1.0710
 Frc consts  --      5.9611                 5.9396                 5.9373
 IR Inten    --      4.0317                97.9963                55.3973

                     52                     53                     54
                      A                      A                      A
 Frequencies --   3079.4767              3085.6940              3113.3414
 Red. masses --      1.0730                 1.1021                 1.1041
 Frc consts  --      5.9953                 6.1829                 6.3053
 IR Inten    --     68.9453                99.5013                55.3817

                     55                     56                     57
                      A                      A                      A
 Frequencies --   3127.5186              3475.1667              3552.8398
 Red. masses --      1.1017                 1.0510                 1.0912
 Frc consts  --      6.3491                 7.4785                 8.1156
 IR Inten    --     50.9678                 1.8025                 0.1545

 - Thermochemistry -
 -------------------
 Temperature   298.150 Kelvin.  Pressure   1.00000 Atm.
 Atom     1 has atomic number  7 and mass  14.00307

 Molecular mass:   102.11570 amu.
 Principal axes and moments of inertia in atomic units:
                           1         2         3
     Eigenvalues --   267.068731758.832721929.35866
           X            1.00000   0.00065  -0.00175
           Y           -0.00064   0.99998   0.00592
           Z            0.00176  -0.00592   0.99998
 This molecule is an asymmetric top.
 Rotational symmetry number  1.
 Rotational temperatures (Kelvin)      0.32431     0.04925     0.04489
 Rotational constants (GHZ):           6.75759     1.02610     0.93541
 Zero-point vibrational energy     512362.9 (Joules/Mol)
                                  122.45767 (Kcal/Mol)
 Warning -- explicit consideration of  12 degrees of freedom as
           vibrations may cause significant error
 Vibrational temperatures:     75.59   117.48   194.92   210.94   359.07
          (Kelvin)            367.63   381.78   466.40   490.65   552.58
                              683.75   728.89  1108.06  1218.42  1246.92
                             1323.24  1425.48  1478.07  1525.29  1546.35
                             1558.92  1617.07  1630.21  1660.21  1718.23
                             1802.27  1819.17  1869.73  1914.72  1930.52
                             1942.31  2048.88  2069.09  2087.93  2129.32
                             2144.75  2149.78  2161.45  2167.75  2178.10
                             2184.58  2200.94  2382.51  4177.49  4208.94
                             4221.18  4254.58  4364.10  4385.82  4389.47
                             4413.42  4430.68  4439.63  4479.40  4499.80
                             4999.99  5111.74

 Zero-point correction=                           0.195149 (Hartree/Particle)
 Thermal correction to Energy=                    0.204508
 Thermal correction to Enthalpy=                  0.205452
 Thermal correction to Gibbs Free Energy=         0.160904
 Sum of electronic and zero-point Energies=           -308.274193
 Sum of electronic and thermal Energies=              -308.264834
 Sum of electronic and thermal Enthalpies=            -308.263889
 Sum of electronic and thermal Free Energies=         -308.308437

                     E (Thermal)             CV                S
                      KCal/Mol        Cal/Mol-Kelvin    Cal/Mol-Kelvin
 Total                  128.331             32.939             93.759
 Electronic               0.000              0.000              0.000
 Translational            0.889              2.981             39.780
 Rotational               0.889              2.981             28.296
 Vibrational            126.553             26.978             25.683
 Vibration     1          0.596              1.977              4.719
 Vibration     2          0.600              1.962              3.851
 Vibration     3          0.613              1.918              2.867
 Vibration     4          0.617              1.906              2.716
 Vibration     5          0.662              1.763              1.734
 Vibration     6          0.666              1.753              1.692
 Vibration     7          0.671              1.737              1.626
 Vibration     8          0.709              1.627              1.289
 Vibration     9          0.721              1.593              1.207
 Vibration    10          0.753              1.504              1.023
 Vibration    11          0.832              1.305              0.723
 Vibration    12          0.862              1.235              0.642

 Optimization completed.
    -- Stationary point found.
 Normal termination of Gaussian 16 at Thu Jul 11 19:51:55 2024.
 Gaussian 16:  EM64L-G16RevA.03 25-Dec-2016

 ----------------------------------------------------------------------
 # TD(NStates=10, Root=1) B3LYP/6-31G** SCRF=(Solvent=water) volume pop
 =NPA density=current Geom=AllCheck Guess=Read
 ----------------------------------------------------------------------

 Structure from the checkpoint file:  "IUNMPGNGSSIWFP-UHFFFAOYSA-N_conf_1_2.chk"
 ----------------------------------
 IUNMPGNGSSIWFP-UHFFFAOYSA-N_conf_1
 ----------------------------------
 Charge =  0 Multiplicity = 1

                         Standard orientation:
 ---------------------------------------------------------------------
 Center     Atomic      Atomic             Coordinates (Angstroms)
 Number     Number       Type             X           Y           Z
 ---------------------------------------------------------------------
      1          7           0       -3.389867    0.243534   -0.233997
      2          6           0       -2.198218   -0.483199    0.232802
      3          6           0       -0.919985    0.213406   -0.239954
      4          6           0        0.343274   -0.516653    0.226328
      5          7           0        1.583807    0.023772   -0.340765
      6          6           0        2.701420   -0.883096   -0.094027
      7          6           0        1.893961    1.358000    0.166406
      8          1           0       -4.222688   -0.252913    0.077985
      9          1           0       -3.428133    1.145603    0.239208
     10          1           0       -2.160010   -0.603537    1.329459
     11          1           0       -2.237422   -1.495840   -0.188250
     12          1           0       -0.922026    0.271863   -1.334631
     13          1           0       -0.926006    1.245372    0.133889
     14          1           0        0.379533   -0.525487    1.334939
     15          1           0        0.274088   -1.565529   -0.088065
     16          1           0        2.917964   -1.025787    0.982269
     17          1           0        3.607347   -0.491354   -0.567517
     18          1           0        2.487747   -1.865414   -0.527130
     19          1           0        2.026831    1.380864    1.265562
     20          1           0        2.821285    1.716205   -0.291388
     21          1           0        1.101206    2.064071   -0.092323
 ---------------------------------------------------------------------

 SCF Done:  E(RB3LYP) =  -308.469341517     A.U. after    1 cycles

 Excitation energies and oscillator strengths:

 Excited State   1:      Singlet-A      7.0208 eV  176.60 nm  f=0.0583  <S**2>=0.000
      29 -> 30         0.59663
      29 -> 31        -0.37032
 This state for optimization and/or second-order correction.
 Total Energy, E(TD-HF/TD-DFT) =  -308.211332387
 Copying the excited state density for this state as the 1-particle RhoCI density.

 Excited State   2:      Singlet-A      7.4058 eV  167.41 nm  f=0.0267  <S**2>=0.000
      28 -> 30        -0.30908
      28 -> 31        -0.37520
      29 -> 30         0.26561
      29 -> 31         0.42901

 Excited State   3:      Singlet-A      7.6191 eV  162.73 nm  f=0.0050  <S**2>=0.000
      28 -> 30         0.31385
      28 -> 31         0.39156
      29 -> 30         0.26130
      29 -> 31         0.39252
      29 -> 33         0.14747

 Excited State   4:      Singlet-A      8.0518 eV  153.98 nm  f=0.0189  <S**2>=0.000
      29 -> 32         0.68904
      29 -> 33         0.10278

 Excited State   5:      Singlet-A      8.1492 eV  152.14 nm  f=0.0315  <S**2>=0.000
      28 -> 30         0.46092
      28 -> 31        -0.30373
      28 -> 33         0.12465
      29 -> 31         0.10477
      29 -> 33        -0.39802

 Excited State   6:      Singlet-A      8.2270 eV  150.70 nm  f=0.0097  <S**2>=0.000
      28 -> 30         0.28808
      28 -> 31        -0.28810
      28 -> 33         0.10375
      29 -> 31        -0.10321
      29 -> 33         0.53678

 Excited State   7:      Singlet-A      8.5241 eV  145.45 nm  f=0.0318  <S**2>=0.000
      29 -> 34         0.25485
      29 -> 35         0.64765

 Excited State   8:      Singlet-A      8.6984 eV  142.54 nm  f=0.0176  <S**2>=0.000
      28 -> 32         0.66457
      28 -> 36         0.12297
      28 -> 37         0.11560

 Excited State   9:      Singlet-A      8.7238 eV  142.12 nm  f=0.0749  <S**2>=0.000
      29 -> 34         0.63321
      29 -> 35        -0.26341

 Excited State  10:      Singlet-A      8.8900 eV  139.47 nm  f=0.0096  <S**2>=0.000
      28 -> 31         0.14860
      28 -> 33         0.63180
      29 -> 36        -0.16959

 The electronic state is 1-A.
 Alpha  occ. eigenvalues --  -14.32294 -14.30936 -10.20318 -10.20238 -10.19712
 Alpha  occ. eigenvalues --  -10.19656 -10.17561  -0.91410  -0.87384  -0.75883
 Alpha  occ. eigenvalues --   -0.69855  -0.66870  -0.59842  -0.57019  -0.48524
 Alpha  occ. eigenvalues --   -0.46972  -0.46853  -0.44985  -0.43037  -0.41717
 Alpha  occ. eigenvalues --   -0.38686  -0.38491  -0.36182  -0.35749  -0.34503
 Alpha  occ. eigenvalues --   -0.33366  -0.32513  -0.23760  -0.21179
 Alpha virt. eigenvalues --    0.08676   0.09062   0.12063   0.12401   0.14386
 Alpha virt. eigenvalues --    0.14716   0.15736   0.16211   0.16699   0.17551
 Alpha virt. eigenvalues --    0.19000   0.20087   0.20501   0.21453   0.23008

 Mulliken charges:
               1
     1  N   -0.642017
     2  C   -0.052227
     3  C   -0.177734
     4  C    0.025125
     5  N   -0.186479
     6  C   -0.118782
     7  C   -0.104114
     8  H    0.254618
     9  H    0.251791
    10  H    0.079500
    11  H    0.100303
    12  H    0.100390
    13  H    0.066301
    14  H    0.055478
    15  H   -0.006820
    16  H    0.104035
    17  H    0.047376
    18  H    0.027002
    19  H    0.095371
    20  H    0.007211
    21  H    0.073671
 Sum of Mulliken charges =  -0.00000

 Dipole moment (field-independent basis, Debye):
    X=             -0.4044    Y=              0.2931    Z=              1.8550  Tot=              1.9210
 Quadrupole moment (field-independent basis, Debye-Ang):
   XX=            -46.4726   YY=            -48.7934   ZZ=            -50.2981
   XY=             -0.0185   XZ=             -4.6948   YZ=              0.5661

 Summary of Natural Population Analysis:

                                       Natural Population
                Natural  -----------------------------------------------
    Atom  No    Charge         Core      Valence    Rydberg      Total
 -----------------------------------------------------------------------
      N    1   -0.92224      1.99968     5.90782    0.01474     7.92224
      C    2   -0.26439      1.99935     4.25021    0.01483     6.26439
      C    3   -0.50129      1.99931     4.48558    0.01639     6.50129
      C    4   -0.33773      1.99928     4.31473    0.02373     6.33773
      N    5   -0.03423      1.99931     5.02611    0.00881     7.03423
      C    6   -0.57282      1.99943     4.54788    0.02551     6.57282
      C    7   -0.56277      1.99941     4.54040    0.02297     6.56277
      H    8    0.39244      0.00000     0.60499    0.00257     0.60756
      H    9    0.38428      0.00000     0.61271    0.00301     0.61572
      H   10    0.19870      0.00000     0.79588    0.00542     0.80130
      H   11    0.22312      0.00000     0.77219    0.00469     0.77688
      H   12    0.23920      0.00000     0.75426    0.00654     0.76080
      H   13    0.20822      0.00000     0.77376    0.01802     0.79178
      H   14    0.20855      0.00000     0.74944    0.04201     0.79145
      H   15    0.15733      0.00000     0.79887    0.04381     0.84267
      H   16    0.23439      0.00000     0.73701    0.02860     0.76561
      H   17    0.18911      0.00000     0.78012    0.03077     0.81089
      H   18    0.16937      0.00000     0.79572    0.03492     0.83063
      H   19    0.23120      0.00000     0.73619    0.03261     0.76880
      H   20    0.15671      0.00000     0.80380    0.03949     0.84329
      H   21    0.20286      0.00000     0.77572    0.02141     0.79714
 =======================================================================
   * Total *   -0.00000     13.99578    43.56338    0.44084    58.00000

 1\1\GINC-CN34\SP\RB3LYP TD-FC\6-31G(d,p)\C5H14N2\QDUEZ\11-Jul-2024\0\\
 # TD(NStates=10, Root=1) B3LYP/6-31G** SCRF=(Solvent=water) volume pop
 =NPA density=current Geom=AllCheck Guess=Read\\IUNMPGNGSSIWFP-UHFFFAOY
 SA-N_conf_1\\0,1\N,0,3.4104776091,-0.6562567833,-0.4053721389\C,0,2.32
 38761214,0.2195555588,0.061876012\C,0,0.9611066345,-0.3418151556,-0.35
 08709958\C,0,-0.1962399077,0.5455354049,0.1175155824\N,0,-1.5064964686
 ,0.1314112775,-0.3965901114\C,0,-2.5054543797,1.1694734085,-0.15814498
 33\C,0,-1.9520432185,-1.1387691079,0.1706064742\H,0,4.303358362,-0.248

 Normal termination of Gaussian 16 at Thu Jul 11 20:10:09 2024.
