 Gaussian 16, Revision A.03,

 -------------------------------------------------------
 # opt=CalcFc B3LYP/6-31G** SCRF=(Solvent=water) scf=xqc
 -------------------------------------------------------

 ----------------------------------
 RLYCRLGLCUXUPO-UHFFFAOYSA-N_conf_0
 ----------------------------------
 Symbolic Z-matrix:
 Charge =  0 Multiplicity = 1

 SCF Done:  E(RB3LYP) =  -382.299433137     A.U. after   11 cycles
 SCF Done:  E(RB3LYP) =  -382.302619009     A.U. after   10 cycles
 SCF Done:  E(RB3LYP) =  -382.302782916     A.U. after    9 cycles
 SCF Done:  E(RB3LYP) =  -382.302784553     A.U. after    7 cycles
 Optimization completed.
    -- Stationary point found.
 Normal termination of Gaussian 16 at Thu Jul 18 21:54:59 2024.

 ----------------------------------------------------------------------
 # freq B3LYP/6-31G** SCRF=(Solvent=water) volume NMR pop=NPA density=c
 urrent Geom=AllCheck Guess=Read
 ----------------------------------------------------------------------

 Structure from the checkpoint file:  "RLYCRLGLCUXUPO-UHFFFAOYSA-N_conf_0_1.chk"
 ----------------------------------
 RLYCRLGLCUXUPO-UHFFFAOYSA-N_conf_0
 ----------------------------------
 Charge =  0 Multiplicity = 1

 SCF Done:  E(RB3LYP) =  -382.302784553     A.U. after    1 cycles

      1  C    Isotropic =   181.1956   Anisotropy =    15.6353

      2  C    Isotropic =    88.1191   Anisotropy =   122.1093

      3  C    Isotropic =    50.5992   Anisotropy =   154.3242

      4  N    Isotropic =   200.0400   Anisotropy =    53.7241

      5  C    Isotropic =    90.9391   Anisotropy =   113.9210

      6  C    Isotropic =    70.2576   Anisotropy =   161.0352

      7  C    Isotropic =    90.9391   Anisotropy =   113.9210

      8  C    Isotropic =    50.5992   Anisotropy =   154.3242

      9  N    Isotropic =   200.0400   Anisotropy =    53.7240

     10  H    Isotropic =    30.1258   Anisotropy =    10.4654

     11  H    Isotropic =    29.8918   Anisotropy =     7.5164

     12  H    Isotropic =    29.8918   Anisotropy =     7.5164

     13  H    Isotropic =    28.7994   Anisotropy =    11.0294

     14  H    Isotropic =    28.8019   Anisotropy =    12.5094

     15  H    Isotropic =    25.6704   Anisotropy =     4.9668

     16  H    Isotropic =    24.8788   Anisotropy =     3.5900

     17  H    Isotropic =    25.6704   Anisotropy =     4.9668

     18  H    Isotropic =    28.7994   Anisotropy =    11.0294

     19  H    Isotropic =    28.8019   Anisotropy =    12.5094

  Exact polarizability: 151.443   0.000 140.377  -0.000  -2.657  47.601
 Approx polarizability: 182.601   0.000 163.504  -0.000  -2.252  58.234

                      1                      2                      3
                      A                      A                      A
 Frequencies --    131.0608               148.9200               231.0697
 Red. masses --      1.1014                 3.4317                 3.5668
 Frc consts  --      0.0111                 0.0448                 0.1122
 IR Inten    --      1.6441                 0.9610                 0.5254

                      4                      5                      6
                      A                      A                      A
 Frequencies --    270.3313               301.4157               326.7849
 Red. masses --      2.4221                 1.4145                 2.0842
 Frc consts  --      0.1043                 0.0757                 0.1311
 IR Inten    --     24.6350                 1.1650                45.5441

                      7                      8                      9
                      A                      A                      A
 Frequencies --    352.2917               393.9416               496.5140
 Red. masses --      1.5053                 1.4704                 5.8490
 Frc consts  --      0.1101                 0.1344                 0.8496
 IR Inten    --     63.3197                 3.1042                 7.7454

                     10                     11                     12
                      A                      A                      A
 Frequencies --    496.5783               510.0510               549.9472
 Red. masses --      2.9115                 3.5236                 5.9405
 Frc consts  --      0.4230                 0.5401                 1.0586
 IR Inten    --      3.1704                 7.8500                 5.8666

                     13                     14                     15
                      A                      A                      A
 Frequencies --    592.7220               657.1233               691.4770
 Red. masses --      2.0891                 1.7904                 3.0110
 Frc consts  --      0.4324                 0.4555                 0.8482
 IR Inten    --    201.3165               294.9439                38.1784

                     16                     17                     18
                      A                      A                      A
 Frequencies --    692.5049               721.9007               774.6913
 Red. masses --      1.8608                 1.8265                 1.9929
 Frc consts  --      0.5258                 0.5608                 0.7047
 IR Inten    --    381.4704                 8.6729               150.5681

                     19                     20                     21
                      A                      A                      A
 Frequencies --    832.7334               833.5396               939.5781
 Red. masses --      4.0969                 1.4516                 1.8959
 Frc consts  --      1.6739                 0.5942                 0.9861
 IR Inten    --     27.1509                 9.2707                 0.6513

                     22                     23                     24
                      A                      A                      A
 Frequencies --    948.3772              1055.8897              1065.7965
 Red. masses --      1.2272                 1.4549                 1.5057
 Frc consts  --      0.6503                 0.9557                 1.0077
 IR Inten    --      0.0647                 5.3855                29.6627

                     25                     26                     27
                      A                      A                      A
 Frequencies --   1073.0876              1148.8688              1169.1864
 Red. masses --      2.1327                 1.2533                 1.3180
 Frc consts  --      1.4469                 0.9746                 1.0616
 IR Inten    --      7.7554                 1.7260                74.6550

                     28                     29                     30
                      A                      A                      A
 Frequencies --   1206.5347              1223.9539              1318.0042
 Red. masses --      1.6329                 3.1872                 1.6423
 Frc consts  --      1.4005                 2.8131                 1.6809
 IR Inten    --     20.0394                 1.2518                29.0223

                     31                     32                     33
                      A                      A                      A
 Frequencies --   1343.4624              1373.2183              1421.0988
 Red. masses --      3.5900                 4.5615                 1.2845
 Frc consts  --      3.8176                 5.0681                 1.5284
 IR Inten    --     43.4412                 8.2409                 1.6225

                     34                     35                     36
                      A                      A                      A
 Frequencies --   1491.0861              1509.1136              1517.3164
 Red. masses --      1.3426                 1.0751                 1.7603
 Frc consts  --      1.7588                 1.4426                 2.3878
 IR Inten    --     38.2163                12.9914               109.5656

                     37                     38                     39
                      A                      A                      A
 Frequencies --   1534.1378              1641.0306              1641.6074
 Red. masses --      3.0529                 4.5578                 3.2064
 Frc consts  --      4.2334                 7.2317                 5.0910
 IR Inten    --     28.2730               137.8189                28.6086

                     40                     41                     42
                      A                      A                      A
 Frequencies --   1661.4947              1669.3831              3019.2323
 Red. masses --      1.2000                 1.3459                 1.0481
 Frc consts  --      1.9518                 2.2099                 5.6291
 IR Inten    --    235.6552                76.0672                61.4613

                     43                     44                     45
                      A                      A                      A
 Frequencies --   3085.8985              3119.5172              3170.4111
 Red. masses --      1.0878                 1.1016                 1.0850
 Frc consts  --      6.1034                 6.3163                 6.4258
 IR Inten    --     32.2210                15.9830                 3.4575

                     46                     47                     48
                      A                      A                      A
 Frequencies --   3179.4702              3194.4803              3556.5532
 Red. masses --      1.0908                 1.0972                 1.0491
 Frc consts  --      6.4971                 6.5968                 7.8184
 IR Inten    --     48.1089                37.5775                22.6215

                     49                     50                     51
                      A                      A                      A
 Frequencies --   3556.6502              3652.6174              3652.6754
 Red. masses --      1.0491                 1.0970                 1.0969
 Frc consts  --      7.8190                 8.6230                 8.6223
 IR Inten    --     13.7575                 8.6851                29.4743

 - Thermochemistry -
 -------------------
 Temperature   298.150 Kelvin.  Pressure   1.00000 Atm.
 Atom     1 has atomic number  6 and mass  12.00000

 Molecular mass:   122.08440 amu.
 Principal axes and moments of inertia in atomic units:
                           1         2         3
     Eigenvalues --   803.898611012.669711800.17248
           X            1.00000   0.00000   0.00000
           Y           -0.00000   0.99999  -0.00443
           Z           -0.00000   0.00443   0.99999
 This molecule is an asymmetric top.
 Rotational symmetry number  1.
 Warning -- assumption of classical behavior for rotation
           may cause significant error
 Rotational temperatures (Kelvin)      0.10774     0.08553     0.04811
 Rotational constants (GHZ):           2.24499     1.78216     1.00254
 Zero-point vibrational energy     425543.6 (Joules/Mol)
                                  101.70736 (Kcal/Mol)
 Warning -- explicit consideration of  13 degrees of freedom as
           vibrations may cause significant error
 Vibrational temperatures:    188.57   214.26   332.46   388.95   433.67
          (Kelvin)            470.17   506.87   566.79   714.37   714.47
                              733.85   791.25   852.79   945.45   994.88
                              996.36  1038.65  1114.61  1198.12  1199.28
                             1351.84  1364.50  1519.19  1533.44  1543.93
                             1652.97  1682.20  1735.93  1761.00  1896.31
                             1932.94  1975.75  2044.64  2145.34  2171.28
                             2183.08  2207.28  2361.08  2361.91  2390.52
                             2401.87  4344.00  4439.92  4488.29  4561.51
                             4574.55  4596.14  5117.09  5117.23  5255.30
                             5255.39

 Zero-point correction=                           0.162081 (Hartree/Particle)
 Thermal correction to Energy=                    0.170716
 Thermal correction to Enthalpy=                  0.171660
 Thermal correction to Gibbs Free Energy=         0.129557
 Sum of electronic and zero-point Energies=           -382.140704
 Sum of electronic and thermal Energies=              -382.132069
 Sum of electronic and thermal Enthalpies=            -382.131124
 Sum of electronic and thermal Free Energies=         -382.173227

                     E (Thermal)             CV                S
                      KCal/Mol        Cal/Mol-Kelvin    Cal/Mol-Kelvin
 Total                  107.126             34.485             88.613
 Electronic               0.000              0.000              0.000
 Translational            0.889              2.981             40.313
 Rotational               0.889              2.981             28.773
 Vibrational            105.348             28.523             19.527
 Vibration     1          0.612              1.922              2.930
 Vibration     2          0.618              1.904              2.686
 Vibration     3          0.653              1.793              1.871
 Vibration     4          0.674              1.728              1.594
 Vibration     5          0.693              1.671              1.409
 Vibration     6          0.710              1.622              1.276
 Vibration     7          0.729              1.571              1.156
 Vibration     8          0.761              1.483              0.985
 Vibration     9          0.852              1.258              0.667
 Vibration    10          0.852              1.258              0.667
 Vibration    11          0.865              1.228              0.633
 Vibration    12          0.905              1.140              0.544
 Vibration    13          0.950              1.047              0.462

 Optimization completed.
    -- Stationary point found.
 Normal termination of Gaussian 16 at Thu Jul 18 21:58:52 2024.
 Gaussian 16:  ES64L-G16RevA.03 25-Dec-2016

 ----------------------------------------------------------------------
 # TD(NStates=10, Root=1) B3LYP/6-31G** SCRF=(Solvent=water) volume pop
 =NPA density=current Geom=AllCheck Guess=Read
 ----------------------------------------------------------------------

 Structure from the checkpoint file:  "RLYCRLGLCUXUPO-UHFFFAOYSA-N_conf_0_2.chk"
 ----------------------------------
 RLYCRLGLCUXUPO-UHFFFAOYSA-N_conf_0
 ----------------------------------
 Charge =  0 Multiplicity = 1

                         Standard orientation:
 ---------------------------------------------------------------------
 Center     Atomic      Atomic             Coordinates (Angstroms)
 Number     Number       Type             X           Y           Z
 ---------------------------------------------------------------------
      1          6           0       -0.000001   -2.197787   -0.075784
      2          6           0       -0.000000   -0.687904   -0.013900
      3          6           0        1.215370    0.030863    0.006237
      4          7           0        2.438937   -0.657757   -0.032129
      5          6           0        1.210274    1.437018   -0.006025
      6          6           0        0.000001    2.124854   -0.023644
      7          6           0       -1.210273    1.437019   -0.006025
      8          6           0       -1.215370    0.030864    0.006237
      9          7           0       -2.438937   -0.657755   -0.032129
     10          1           0       -0.000003   -2.667751    0.917871
     11          1           0       -0.880070   -2.569332   -0.608986
     12          1           0        0.880070   -2.569334   -0.608983
     13          1           0        2.454753   -1.519338    0.498912
     14          1           0        3.229829   -0.079921    0.225310
     15          1           0        2.153693    1.976176    0.004228
     16          1           0        0.000001    3.211596   -0.029559
     17          1           0       -2.153692    1.976178    0.004228
     18          1           0       -2.454754   -1.519336    0.498912
     19          1           0       -3.229829   -0.079919    0.225310
 ---------------------------------------------------------------------

 SCF Done:  E(RB3LYP) =  -382.302784553     A.U. after    2 cycles

 Excitation energies and oscillator strengths:

 Excited State   1:      Singlet-A      4.7795 eV  259.41 nm  f=0.0703  <S**2>=0.000
      32 -> 35         0.30347
      33 -> 34         0.63559
 This state for optimization and/or second-order correction.
 Total Energy, E(TD-HF/TD-DFT) =  -382.127140417
 Copying the excited state density for this state as the 1-particle RhoCI density.

 Excited State   2:      Singlet-A      5.4570 eV  227.20 nm  f=0.0004  <S**2>=0.000
      32 -> 34         0.56175
      33 -> 35        -0.42490

 Excited State   3:      Singlet-A      5.7180 eV  216.83 nm  f=0.5160  <S**2>=0.000
      31 -> 34         0.10457
      32 -> 34         0.41655
      33 -> 35         0.55720

 Excited State   4:      Singlet-A      5.9404 eV  208.71 nm  f=0.8921  <S**2>=0.000
      32 -> 35         0.63091
      33 -> 34        -0.29509

 Excited State   5:      Singlet-A      6.5961 eV  187.97 nm  f=0.0066  <S**2>=0.000
      33 -> 36         0.69401

 Excited State   6:      Singlet-A      6.8706 eV  180.46 nm  f=0.0130  <S**2>=0.000
      32 -> 36         0.67271
      33 -> 38         0.20691

 Excited State   7:      Singlet-A      7.1474 eV  173.47 nm  f=0.0027  <S**2>=0.000
      33 -> 37         0.70047

 Excited State   8:      Singlet-A      7.3308 eV  169.13 nm  f=0.1798  <S**2>=0.000
      31 -> 34         0.50790
      32 -> 36         0.12749
      33 -> 38        -0.45635

 Excited State   9:      Singlet-A      7.4245 eV  166.99 nm  f=0.2587  <S**2>=0.000
      31 -> 34         0.46545
      32 -> 36        -0.16165
      33 -> 38         0.47859

 Excited State  10:      Singlet-A      7.5771 eV  163.63 nm  f=0.0020  <S**2>=0.000
      30 -> 34        -0.18865
      31 -> 35         0.66797

 The electronic state is 1-A.
 Alpha  occ. eigenvalues --  -14.33236 -14.33236 -10.21971 -10.21971 -10.18119
 Alpha  occ. eigenvalues --  -10.18025 -10.17872 -10.16924 -10.16922  -0.91561
 Alpha  occ. eigenvalues --   -0.90197  -0.81321  -0.75840  -0.70835  -0.67478
 Alpha  occ. eigenvalues --   -0.59463  -0.58272  -0.51709  -0.51136  -0.47663
 Alpha  occ. eigenvalues --   -0.46214  -0.43694  -0.41940  -0.41033  -0.40125
 Alpha  occ. eigenvalues --   -0.38717  -0.36548  -0.35081  -0.33499  -0.32611
 Alpha  occ. eigenvalues --   -0.28020  -0.20738  -0.19334
 Alpha virt. eigenvalues --    0.01361   0.02799   0.08179   0.10728   0.11027
 Alpha virt. eigenvalues --    0.14122   0.14455   0.15879   0.16566   0.18728
 Alpha virt. eigenvalues --    0.18926   0.20131   0.20938   0.23852   0.28187

 Mulliken charges:
               1
     1  C   -0.408424
     2  C    0.066251
     3  C    0.166815
     4  N   -0.637036
     5  C   -0.113859
     6  C   -0.181358
     7  C   -0.113859
     8  C    0.166815
     9  N   -0.637036
    10  H    0.107055
    11  H    0.107906
    12  H    0.107906
    13  H    0.280573
    14  H    0.284416
    15  H    0.085754
    16  H    0.067336
    17  H    0.085754
    18  H    0.280573
    19  H    0.284416
 Sum of Mulliken charges =  -0.00000

 Dipole moment (field-independent basis, Debye):
    X=             -0.0000    Y=             -1.6679    Z=              2.5707  Tot=              3.0644
 Quadrupole moment (field-independent basis, Debye-Ang):
   XX=            -36.8167   YY=            -51.7268   ZZ=            -57.9547
   XY=             -0.0000   XZ=              0.0000   YZ=             -2.7861

 Summary of Natural Population Analysis:

                                       Natural Population
                Natural  -----------------------------------------------
    Atom  No    Charge         Core      Valence    Rydberg      Total
 -----------------------------------------------------------------------
      C    1   -0.71633      1.99943     4.70928    0.00762     6.71633
      C    2   -0.18719      1.99895     4.17116    0.01708     6.18719
      C    3    0.13766      1.99895     3.84444    0.01895     5.86234
      N    4   -0.78833      1.99951     5.77699    0.01183     7.78833
      C    5   -0.24504      1.99906     4.22953    0.01646     6.24504
      C    6   -0.36151      1.99916     4.34190    0.02045     6.36151
      C    7   -0.24504      1.99906     4.22953    0.01646     6.24504
      C    8    0.13766      1.99895     3.84444    0.01895     5.86234
      N    9   -0.78833      1.99951     5.77699    0.01183     7.78833
      H   10    0.22692      0.00000     0.77019    0.00289     0.77308
      H   11    0.23866      0.00000     0.75911    0.00223     0.76134
      H   12    0.23866      0.00000     0.75911    0.00223     0.76134
      H   13    0.41234      0.00000     0.58353    0.00413     0.58766
      H   14    0.41589      0.00000     0.58161    0.00250     0.58411
      H   15    0.23264      0.00000     0.76565    0.00171     0.76736
      H   16    0.23047      0.00000     0.76807    0.00146     0.76953
      H   17    0.23264      0.00000     0.76565    0.00171     0.76736
      H   18    0.41234      0.00000     0.58353    0.00413     0.58766
      H   19    0.41589      0.00000     0.58161    0.00250     0.58411
 =======================================================================
   * Total *   -0.00000     17.99255    47.84232    0.16513    66.00000

 Normal termination of Gaussian 16 at Thu Jul 18 22:04:04 2024.
