 Gaussian 16, Revision A.03,

 -------------------------------------------------------
 # opt=CalcFc B3LYP/6-31G** SCRF=(Solvent=water) scf=xqc
 -------------------------------------------------------

 ----------------------------------
 QYIMZXITLDTULQ-UHFFFAOYSA-N_conf_2
 ----------------------------------
 Symbolic Z-matrix:
 Charge =  0 Multiplicity = 1

 SCF Done:  E(RB3LYP) =  -652.681221628     A.U. after   12 cycles
 SCF Done:  E(RB3LYP) =  -652.684887261     A.U. after   10 cycles
 SCF Done:  E(RB3LYP) =  -652.684977304     A.U. after    9 cycles
 SCF Done:  E(RB3LYP) =  -652.684945747     A.U. after   10 cycles
 SCF Done:  E(RB3LYP) =  -652.684973291     A.U. after   10 cycles
 SCF Done:  E(RB3LYP) =  -652.684978943     A.U. after    9 cycles
 SCF Done:  E(RB3LYP) =  -652.684977893     A.U. after    9 cycles
 SCF Done:  E(RB3LYP) =  -652.684979335     A.U. after    9 cycles
 SCF Done:  E(RB3LYP) =  -652.684979516     A.U. after    8 cycles
 SCF Done:  E(RB3LYP) =  -652.684979566     A.U. after    7 cycles
 Optimization completed on the basis of negligible forces.
    -- Stationary point found.
 Normal termination of Gaussian 16 at Mon Jul 22 11:18:56 2024.

 ----------------------------------------------------------------------
 # freq B3LYP/6-31G** SCRF=(Solvent=water) volume NMR pop=NPA density=c
 urrent Geom=AllCheck Guess=Read
 ----------------------------------------------------------------------

 Structure from the checkpoint file:  "QYIMZXITLDTULQ-UHFFFAOYSA-N_conf_2_1.chk"
 ----------------------------------
 QYIMZXITLDTULQ-UHFFFAOYSA-N_conf_2
 ----------------------------------
 Charge =  0 Multiplicity = 1

 SCF Done:  E(RB3LYP) =  -652.684979566     A.U. after    1 cycles

      1  N    Isotropic =   200.6715   Anisotropy =    75.1098

      2  C    Isotropic =    50.8353   Anisotropy =   158.6112

      3  C    Isotropic =    85.4232   Anisotropy =   127.0234

      4  C    Isotropic =    65.9479   Anisotropy =   150.2211

      5  C    Isotropic =    63.2284   Anisotropy =   154.3715

      6  C    Isotropic =    63.2284   Anisotropy =   154.3715

      7  C    Isotropic =    65.9479   Anisotropy =   150.2211

      8  C    Isotropic =    85.4232   Anisotropy =   127.0234

      9  C    Isotropic =    50.8353   Anisotropy =   158.6112

     10  N    Isotropic =   200.6715   Anisotropy =    75.1098

     11  C    Isotropic =    80.8052   Anisotropy =   108.9191

     12  C    Isotropic =    57.2020   Anisotropy =   173.4535

     13  C    Isotropic =   169.8168   Anisotropy =    26.6980

     14  C    Isotropic =    57.2020   Anisotropy =   173.4535

     15  C    Isotropic =   169.8168   Anisotropy =    26.6980

     16  C    Isotropic =    80.8052   Anisotropy =   108.9191

     17  H    Isotropic =    28.6255   Anisotropy =    11.9922

     18  H    Isotropic =    28.6443   Anisotropy =    12.3580

     19  H    Isotropic =    25.2423   Anisotropy =     5.0940

     20  H    Isotropic =    24.9106   Anisotropy =     8.1814

     21  H    Isotropic =    24.9106   Anisotropy =     8.1814

     22  H    Isotropic =    25.2423   Anisotropy =     5.0940

     23  H    Isotropic =    28.6255   Anisotropy =    11.9922

     24  H    Isotropic =    28.6443   Anisotropy =    12.3580

     25  H    Isotropic =    25.2232   Anisotropy =     7.4042

     26  H    Isotropic =    30.1430   Anisotropy =     8.9416

     27  H    Isotropic =    29.8792   Anisotropy =     5.7513

     28  H    Isotropic =    29.7013   Anisotropy =     6.7088

     29  H    Isotropic =    29.7013   Anisotropy =     6.7088

     30  H    Isotropic =    29.8792   Anisotropy =     5.7513

     31  H    Isotropic =    30.1430   Anisotropy =     8.9416

     32  H    Isotropic =    25.2232   Anisotropy =     7.4042

  Exact polarizability: 317.818   7.044 165.760   0.000   0.000 162.220
 Approx polarizability: 347.007   7.950 199.713   0.000   0.000 196.329

                      1                      2                      3
                      A                      A                      A
 Frequencies --     16.2867                57.9678                58.8041
 Red. masses --      3.6358                 4.4094                 4.5006
 Frc consts  --      0.0006                 0.0087                 0.0092
 IR Inten    --      0.6675                 1.9743                 2.3100

                      4                      5                      6
                      A                      A                      A
 Frequencies --    100.4762               103.6384               169.8742
 Red. masses --      1.0384                 1.0309                 3.6762
 Frc consts  --      0.0062                 0.0065                 0.0625
 IR Inten    --      0.8319                 0.2513                 0.3407

                      7                      8                      9
                      A                      A                      A
 Frequencies --    170.3813               216.6715               216.8197
 Red. masses --      3.5564                 3.0654                 3.1504
 Frc consts  --      0.0608                 0.0848                 0.0873
 IR Inten    --      0.8375                 2.1373                12.5027

                     10                     11                     12
                      A                      A                      A
 Frequencies --    229.8062               298.3214               307.6269
 Red. masses --      4.8195                 1.8914                 1.1569
 Frc consts  --      0.1500                 0.0992                 0.0645
 IR Inten    --      0.0382                13.9420                35.4087

                     13                     14                     15
                      A                      A                      A
 Frequencies --    314.1496               322.9622               374.6838
 Red. masses --      1.2961                 2.5883                 4.1281
 Frc consts  --      0.0754                 0.1591                 0.3415
 IR Inten    --     23.5807                 3.4049                11.0878

                     16                     17                     18
                      A                      A                      A
 Frequencies --    376.0310               449.6795               449.9761
 Red. masses --      4.0744                 2.9412                 2.8510
 Frc consts  --      0.3394                 0.3504                 0.3401
 IR Inten    --      0.1049                 8.5049                 5.3558

                     19                     20                     21
                      A                      A                      A
 Frequencies --    489.2837               494.2706               535.0640
 Red. masses --      3.4604                 3.3265                 5.9869
 Frc consts  --      0.4881                 0.4788                 1.0099
 IR Inten    --      2.7753                 0.1178                23.2884

                     22                     23                     24
                      A                      A                      A
 Frequencies --    552.4786               555.0341               590.1786
 Red. masses --      3.9934                 4.3539                 1.9410
 Frc consts  --      0.7182                 0.7903                 0.3983
 IR Inten    --    163.2443                 2.6781                83.7972

                     25                     26                     27
                      A                      A                      A
 Frequencies --    597.2374               640.3955               642.9360
 Red. masses --      2.0360                 2.3359                 1.8262
 Frc consts  --      0.4279                 0.5644                 0.4448
 IR Inten    --    344.4719                32.8885               573.2907

                     28                     29                     30
                      A                      A                      A
 Frequencies --    683.1893               743.1766               745.7263
 Red. masses --      2.9837                 4.6549                 4.8203
 Frc consts  --      0.8205                 1.5148                 1.5794
 IR Inten    --     12.0923                 1.3636                 4.0276

                     31                     32                     33
                      A                      A                      A
 Frequencies --    746.4931               750.3186               829.3859
 Red. masses --      4.4107                 4.6246                 1.4622
 Frc consts  --      1.4481                 1.5340                 0.5926
 IR Inten    --     31.6136                 5.6646                34.1175

                     34                     35                     36
                      A                      A                      A
 Frequencies --    829.4855               865.7057               866.0782
 Red. masses --      1.4767                 1.4053                 1.4131
 Frc consts  --      0.5986                 0.6205                 0.6245
 IR Inten    --     45.5836                25.1565                27.9270

                     37                     38                     39
                      A                      A                      A
 Frequencies --    948.5184               949.7575               959.8046
 Red. masses --      1.3373                 1.3195                 2.6365
 Frc consts  --      0.7089                 0.7013                 1.4310
 IR Inten    --      0.1366                 0.5030                 3.7804

                     40                     41                     42
                      A                      A                      A
 Frequencies --    966.9733              1015.4961              1021.3932
 Red. masses --      3.1530                 4.2030                 1.7463
 Frc consts  --      1.7370                 2.5537                 1.0734
 IR Inten    --      1.0579                18.0861                11.4172

                     43                     44                     45
                      A                      A                      A
 Frequencies --   1022.3474              1058.4523              1060.5051
 Red. masses --      1.5208                 1.5143                 1.5147
 Frc consts  --      0.9366                 0.9996                 1.0037
 IR Inten    --      7.9650                 7.0905                 4.4111

                     46                     47                     48
                      A                      A                      A
 Frequencies --   1116.3625              1120.6348              1142.3044
 Red. masses --      1.5060                 1.4378                 1.6816
 Frc consts  --      1.1058                 1.0638                 1.2928
 IR Inten    --      0.0113                 1.0236                 6.2205

                     49                     50                     51
                      A                      A                      A
 Frequencies --   1158.7248              1194.1831              1199.5942
 Red. masses --      1.4229                 1.5860                 1.6151
 Frc consts  --      1.1256                 1.3326                 1.3694
 IR Inten    --     20.5356                 1.4320                10.0845

                     52                     53                     54
                      A                      A                      A
 Frequencies --   1277.7607              1282.3529              1310.1069
 Red. masses --      1.6869                 1.7311                 2.5180
 Frc consts  --      1.6227                 1.6772                 2.5464
 IR Inten    --      1.1899               150.7889                 2.8583

                     55                     56                     57
                      A                      A                      A
 Frequencies --   1331.4000              1337.0435              1344.7134
 Red. masses --      3.5240                 4.8499                 3.1603
 Frc consts  --      3.6804                 5.1082                 3.3670
 IR Inten    --    124.7872                 3.6002                37.7009

                     58                     59                     60
                      A                      A                      A
 Frequencies --   1345.8377              1419.9401              1424.4411
 Red. masses --      3.0253                 1.2520                 1.2470
 Frc consts  --      3.2285                 1.4873                 1.4907
 IR Inten    --      8.4884                 1.2674                 0.1979

                     61                     62                     63
                      A                      A                      A
 Frequencies --   1466.2023              1471.4716              1483.6285
 Red. masses --      1.9490                 2.0487                 1.0460
 Frc consts  --      2.4686                 2.6136                 1.3565
 IR Inten    --      6.0025                 0.0050                 7.4418

                     64                     65                     66
                      A                      A                      A
 Frequencies --   1488.2272              1498.6694              1500.4521
 Red. masses --      1.0468                 1.5190                 1.3550
 Frc consts  --      1.3660                 2.0101                 1.7974
 IR Inten    --     10.0111                12.5005                 4.9480

                     67                     68                     69
                      A                      A                      A
 Frequencies --   1531.5596              1554.5265              1614.8507
 Red. masses --      2.2846                 3.2600                 6.1196
 Frc consts  --      3.1575                 4.6415                 9.4024
 IR Inten    --    247.6924                 2.4323                32.1822

                     70                     71                     72
                      A                      A                      A
 Frequencies --   1615.0474              1653.3129              1653.3760
 Red. masses --      5.9686                 1.4077                 1.4830
 Frc consts  --      9.1726                 2.2672                 2.3885
 IR Inten    --     10.6211                24.1524                 3.4167

                     73                     74                     75
                      A                      A                      A
 Frequencies --   1666.1612              1667.5923              3041.7412
 Red. masses --      2.7490                 2.9654                 1.0370
 Frc consts  --      4.4963                 4.8586                 5.6530
 IR Inten    --     20.4250               491.5983                32.7506

                     76                     77                     78
                      A                      A                      A
 Frequencies --   3042.2623              3096.9123              3097.5525
 Red. masses --      1.0369                 1.1004                 1.1005
 Frc consts  --      5.6545                 6.2180                 6.2214
 IR Inten    --     50.1657                23.0744                26.8466

                     79                     80                     81
                      A                      A                      A
 Frequencies --   3125.6572              3125.8048              3164.3028
 Red. masses --      1.1023                 1.1022                 1.0901
 Frc consts  --      6.3448                 6.3450                 6.4307
 IR Inten    --     68.7732                14.1172                68.4740

                     82                     83                     84
                      A                      A                      A
 Frequencies --   3164.5517              3170.5607              3170.6421
 Red. masses --      1.0900                 1.0868                 1.0868
 Frc consts  --      6.4313                 6.4369                 6.4374
 IR Inten    --     22.2780                41.9655                 0.0049

                     85                     86                     87
                      A                      A                      A
 Frequencies --   3187.2142              3187.7559              3556.0611
 Red. masses --      1.0948                 1.0949                 1.0486
 Frc consts  --      6.5526                 6.5556                 7.8128
 IR Inten    --     37.3571                32.0818                51.1694

                     88                     89                     90
                      A                      A                      A
 Frequencies --   3556.1046              3657.1900              3657.1912
 Red. masses --      1.0486                 1.0979                 1.0979
 Frc consts  --      7.8132                 8.6521                 8.6521
 IR Inten    --      6.6729                20.6405                20.2865

 - Thermochemistry -
 -------------------
 Temperature   298.150 Kelvin.  Pressure   1.00000 Atm.
 Atom     1 has atomic number  7 and mass  14.00307

 Molecular mass:   212.13135 amu.
 Principal axes and moments of inertia in atomic units:
                           1         2         3
     Eigenvalues --  1329.686016725.971696779.48898
           X            0.99999  -0.00435  -0.00000
           Y            0.00435   0.99999   0.00000
           Z            0.00000  -0.00000   1.00000
 This molecule is an asymmetric top.
 Rotational symmetry number  1.
 Warning -- assumption of classical behavior for rotation
           may cause significant error
 Rotational temperatures (Kelvin)      0.06514     0.01288     0.01278
 Rotational constants (GHZ):           1.35727     0.26832     0.26621
 Zero-point vibrational energy     707386.7 (Joules/Mol)
                                  169.06948 (Kcal/Mol)
 Warning -- explicit consideration of  25 degrees of freedom as
           vibrations may cause significant error
 Vibrational temperatures:     23.43    83.40    84.61   144.56   149.11
          (Kelvin)            244.41   245.14   311.74   311.96   330.64
                              429.22   442.61   451.99   464.67   539.09
                              541.02   646.99   647.42   703.97   711.15
                              769.84   794.89   798.57   849.14   859.29
                              921.39   925.04   982.96  1069.27  1072.93
                             1074.04  1079.54  1193.30  1193.44  1245.56
                             1246.09  1364.71  1366.49  1380.94  1391.26
                             1461.07  1469.56  1470.93  1522.88  1525.83
                             1606.20  1612.34  1643.52  1667.15  1718.16
                             1725.95  1838.41  1845.02  1884.95  1915.59
                             1923.71  1934.74  1936.36  2042.98  2049.45
                             2109.54  2117.12  2134.61  2141.23  2156.25
                             2158.82  2203.57  2236.62  2323.41  2323.69
                             2378.75  2378.84  2397.23  2399.29  4376.39
                             4377.14  4455.77  4456.69  4497.12  4497.34
                             4552.73  4553.08  4561.73  4561.85  4585.69
                             4586.47  5116.38  5116.44  5261.88  5261.88

 Zero-point correction=                           0.269429 (Hartree/Particle)
 Thermal correction to Energy=                    0.284895
 Thermal correction to Enthalpy=                  0.285839
 Thermal correction to Gibbs Free Energy=         0.226247
 Sum of electronic and zero-point Energies=           -652.415550
 Sum of electronic and thermal Energies=              -652.400085
 Sum of electronic and thermal Enthalpies=            -652.399140
 Sum of electronic and thermal Free Energies=         -652.458733

                     E (Thermal)             CV                S
                      KCal/Mol        Cal/Mol-Kelvin    Cal/Mol-Kelvin
 Total                  178.774             60.328            125.422
 Electronic               0.000              0.000              0.000
 Translational            0.889              2.981             41.960
 Rotational               0.889              2.981             32.472
 Vibrational            176.997             54.366             50.990
 Vibration     1          0.593              1.986              7.042
 Vibration     2          0.596              1.974              4.525
 Vibration     3          0.596              1.974              4.497
 Vibration     4          0.604              1.949              3.445
 Vibration     5          0.605              1.946              3.385
 Vibration     6          0.625              1.880              2.437
 Vibration     7          0.625              1.879              2.431
 Vibration     8          0.646              1.816              1.987
 Vibration     9          0.646              1.815              1.985
 Vibration    10          0.652              1.795              1.880
 Vibration    11          0.691              1.677              1.426
 Vibration    12          0.697              1.659              1.375
 Vibration    13          0.702              1.647              1.340
 Vibration    14          0.708              1.629              1.295
 Vibration    15          0.746              1.524              1.061
 Vibration    16          0.747              1.521              1.055
 Vibration    17          0.809              1.362              0.797
 Vibration    18          0.809              1.361              0.796
 Vibration    19          0.845              1.274              0.685
 Vibration    20          0.850              1.263              0.673
 Vibration    21          0.890              1.172              0.576
 Vibration    22          0.908              1.134              0.539
 Vibration    23          0.910              1.129              0.534
 Vibration    24          0.948              1.053              0.467
 Vibration    25          0.955              1.038              0.454

 Optimization completed on the basis of negligible forces.
    -- Stationary point found.
 Normal termination of Gaussian 16 at Mon Jul 22 11:33:02 2024.
 Gaussian 16:  ES64L-G16RevA.03 25-Dec-2016

 ----------------------------------------------------------------------
 # TD(NStates=10, Root=1) B3LYP/6-31G** SCRF=(Solvent=water) volume pop
 =NPA density=current Geom=AllCheck Guess=Read
 ----------------------------------------------------------------------

 Structure from the checkpoint file:  "QYIMZXITLDTULQ-UHFFFAOYSA-N_conf_2_2.chk"
 ----------------------------------
 QYIMZXITLDTULQ-UHFFFAOYSA-N_conf_2
 ----------------------------------
 Charge =  0 Multiplicity = 1

                         Standard orientation:
 ---------------------------------------------------------------------
 Center     Atomic      Atomic             Coordinates (Angstroms)
 Number     Number       Type             X           Y           Z
 ---------------------------------------------------------------------
      1          7           0       -4.981861   -0.201372   -0.279021
      2          6           0       -3.586566   -0.115907   -0.298371
      3          6           0       -2.821771   -0.949261   -1.129855
      4          6           0       -1.430759   -0.890440   -1.082436
      5          6           0       -0.749049   -0.017203   -0.223207
      6          6           0        0.749049    0.017203   -0.223207
      7          6           0        1.430759    0.890440   -1.082436
      8          6           0        2.821771    0.949261   -1.129855
      9          6           0        3.586566    0.115907   -0.298371
     10          7           0        4.981861    0.201372   -0.279021
     11          6           0        2.909524   -0.764497    0.563630
     12          6           0        1.514103   -0.826706    0.613991
     13          6           0        0.845075   -1.803246    1.555148
     14          6           0       -1.514103    0.826706    0.613991
     15          6           0       -0.845075    1.803246    1.555148
     16          6           0       -2.909524    0.764497    0.563630
     17          1           0       -5.449424    0.641464    0.030798
     18          1           0       -5.392125   -0.544257   -1.138701
     19          1           0       -3.317559   -1.637925   -1.809167
     20          1           0       -0.853179   -1.538873   -1.736447
     21          1           0        0.853179    1.538873   -1.736447
     22          1           0        3.317559    1.637925   -1.809167
     23          1           0        5.449424   -0.641464    0.030798
     24          1           0        5.392125    0.544257   -1.138701
     25          1           0        3.492278   -1.417526    1.209936
     26          1           0        1.584503   -2.356758    2.139793
     27          1           0        0.174009   -1.292281    2.254388
     28          1           0        0.231960   -2.528498    1.009134
     29          1           0       -0.231960    2.528498    1.009134
     30          1           0       -0.174009    1.292281    2.254388
     31          1           0       -1.584503    2.356758    2.139793
     32          1           0       -3.492278    1.417526    1.209936
 ---------------------------------------------------------------------

 SCF Done:  E(RB3LYP) =  -652.684979566     A.U. after    2 cycles

 Excitation energies and oscillator strengths:

 Excited State   1:      Singlet-A      4.7185 eV  262.76 nm  f=0.0641  <S**2>=0.000
      54 -> 60         0.14035
      55 -> 61         0.12705
      56 -> 59         0.19022
      57 -> 58         0.65093
 This state for optimization and/or second-order correction.
 Total Energy, E(TD-HF/TD-DFT) =  -652.511577933
 Copying the excited state density for this state as the 1-particle RhoCI density.

 Excited State   2:      Singlet-A      4.7271 eV  262.28 nm  f=0.0593  <S**2>=0.000
      54 -> 61         0.13162
      55 -> 60         0.14093
      56 -> 58         0.63965
      57 -> 59         0.22331

 Excited State   3:      Singlet-A      4.9578 eV  250.08 nm  f=0.0102  <S**2>=0.000
      56 -> 58        -0.25548
      57 -> 59         0.64324

 Excited State   4:      Singlet-A      4.9662 eV  249.66 nm  f=0.0182  <S**2>=0.000
      56 -> 59         0.65528
      57 -> 58        -0.22676

 Excited State   5:      Singlet-A      5.1391 eV  241.26 nm  f=0.0440  <S**2>=0.000
      56 -> 61        -0.38794
      57 -> 60         0.58446

 Excited State   6:      Singlet-A      5.1485 eV  240.81 nm  f=0.0017  <S**2>=0.000
      56 -> 60         0.52535
      57 -> 61        -0.46542

 Excited State   7:      Singlet-A      5.3433 eV  232.03 nm  f=1.0512  <S**2>=0.000
      56 -> 61         0.57740
      57 -> 60         0.38612

 Excited State   8:      Singlet-A      5.5381 eV  223.88 nm  f=0.0005  <S**2>=0.000
      54 -> 59        -0.12861
      55 -> 58        -0.22538
      56 -> 60         0.42772
      57 -> 61         0.48706

 Excited State   9:      Singlet-A      5.9961 eV  206.78 nm  f=0.1014  <S**2>=0.000
      54 -> 58         0.60576
      55 -> 59        -0.35598

 Excited State  10:      Singlet-A      6.0028 eV  206.54 nm  f=0.0080  <S**2>=0.000
      54 -> 59        -0.40177
      55 -> 58         0.56527

 The electronic state is 1-A.
 Alpha  occ. eigenvalues --  -14.33457 -14.33457 -10.22382 -10.22382 -10.19335
 Alpha  occ. eigenvalues --  -10.19335 -10.18347 -10.18347 -10.18040 -10.18012
 Alpha  occ. eigenvalues --  -10.17732 -10.17732 -10.17656 -10.17656 -10.17647
 Alpha  occ. eigenvalues --  -10.17647  -0.91188  -0.91137  -0.85067  -0.82477
 Alpha  occ. eigenvalues --   -0.76058  -0.76023  -0.74557  -0.70369  -0.68305
 Alpha  occ. eigenvalues --   -0.67051  -0.60748  -0.59432  -0.58620  -0.56285
 Alpha  occ. eigenvalues --   -0.50985  -0.50403  -0.49941  -0.49460  -0.47439
 Alpha  occ. eigenvalues --   -0.43856  -0.43811  -0.43102  -0.42036  -0.41113
 Alpha  occ. eigenvalues --   -0.40698  -0.40330  -0.39916  -0.39164  -0.37624
 Alpha  occ. eigenvalues --   -0.37053  -0.37043  -0.36268  -0.33390  -0.33363
 Alpha  occ. eigenvalues --   -0.32800  -0.29735  -0.29502  -0.23998  -0.23921
 Alpha  occ. eigenvalues --   -0.19920  -0.19873
 Alpha virt. eigenvalues --    0.00127   0.00850   0.01486   0.01755   0.09417
 Alpha virt. eigenvalues --    0.09651   0.10396   0.11391   0.12764   0.12767
 Alpha virt. eigenvalues --    0.13155   0.14484   0.14821   0.16063   0.16375

 Mulliken charges:
               1
     1  N   -0.628776
     2  C    0.268672
     3  C   -0.150777
     4  C   -0.154166
     5  C   -0.008673
     6  C   -0.008673
     7  C   -0.154166
     8  C   -0.150777
     9  C    0.268672
    10  N   -0.628776
    11  C   -0.204100
    12  C    0.088748
    13  C   -0.383635
    14  C    0.088748
    15  C   -0.383635
    16  C   -0.204100
    17  H    0.292789
    18  H    0.293592
    19  H    0.083387
    20  H    0.078185
    21  H    0.078185
    22  H    0.083387
    23  H    0.292789
    24  H    0.293592
    25  H    0.077114
    26  H    0.108073
    27  H    0.119793
    28  H    0.119773
    29  H    0.119773
    30  H    0.119793
    31  H    0.108073
    32  H    0.077114
 Sum of Mulliken charges =  -0.00000

 Dipole moment (field-independent basis, Debye):
    X=             -0.0000    Y=             -0.0000    Z=             -1.5076  Tot=              1.5076
 Quadrupole moment (field-independent basis, Debye-Ang):
   XX=            -45.1874   YY=            -94.1887   ZZ=            -92.7904
   XY=             -8.5424   XZ=              0.0000   YZ=             -0.0000

 Summary of Natural Population Analysis:

                                       Natural Population
                Natural  -----------------------------------------------
    Atom  No    Charge         Core      Valence    Rydberg      Total
 -----------------------------------------------------------------------
      N    1   -0.77435      1.99949     5.76384    0.01101     7.77435
      C    2    0.18455      1.99897     3.79858    0.01790     5.81545
      C    3   -0.31805      1.99903     4.30287    0.01614     6.31805
      C    4   -0.28338      1.99905     4.26706    0.01727     6.28338
      C    5   -0.01745      1.99895     4.00137    0.01713     6.01745
      C    6   -0.01745      1.99895     4.00137    0.01713     6.01745
      C    7   -0.28338      1.99905     4.26706    0.01727     6.28338
      C    8   -0.31805      1.99903     4.30287    0.01614     6.31805
      C    9    0.18455      1.99897     3.79858    0.01790     5.81545
      N   10   -0.77435      1.99949     5.76384    0.01101     7.77435
      C   11   -0.32900      1.99898     4.31450    0.01552     6.32900
      C   12   -0.04785      1.99898     4.03298    0.01588     6.04785
      C   13   -0.69903      1.99940     4.69283    0.00680     6.69903
      C   14   -0.04785      1.99898     4.03298    0.01588     6.04785
      C   15   -0.69903      1.99940     4.69283    0.00680     6.69903
      C   16   -0.32900      1.99898     4.31450    0.01552     6.32900
      H   17    0.42127      0.00000     0.57591    0.00282     0.57873
      H   18    0.42197      0.00000     0.57540    0.00264     0.57803
      H   19    0.23800      0.00000     0.76034    0.00166     0.76200
      H   20    0.23940      0.00000     0.75904    0.00157     0.76060
      H   21    0.23940      0.00000     0.75904    0.00157     0.76060
      H   22    0.23800      0.00000     0.76034    0.00166     0.76200
      H   23    0.42127      0.00000     0.57591    0.00282     0.57873
      H   24    0.42197      0.00000     0.57540    0.00264     0.57803
      H   25    0.23382      0.00000     0.76438    0.00179     0.76618
      H   26    0.23991      0.00000     0.75879    0.00130     0.76009
      H   27    0.24333      0.00000     0.75516    0.00151     0.75667
      H   28    0.24686      0.00000     0.75142    0.00172     0.75314
      H   29    0.24686      0.00000     0.75142    0.00172     0.75314
      H   30    0.24333      0.00000     0.75516    0.00151     0.75667
      H   31    0.23991      0.00000     0.75879    0.00130     0.76009
      H   32    0.23382      0.00000     0.76438    0.00179     0.76618
 =======================================================================
   * Total *   -0.00000     31.98573    81.74896    0.26531   114.00000

 Normal termination of Gaussian 16 at Mon Jul 22 11:45:40 2024.
