 Gaussian 16, Revision A.03,

 -------------------------------------------------------
 # opt=CalcFc B3LYP/6-31G** SCRF=(Solvent=water) scf=xqc
 -------------------------------------------------------

 ----------------------------------
 QYIMZXITLDTULQ-UHFFFAOYSA-N_conf_1
 ----------------------------------
 Symbolic Z-matrix:
 Charge =  0 Multiplicity = 1

 SCF Done:  E(RB3LYP) =  -652.681174830     A.U. after   12 cycles
 SCF Done:  E(RB3LYP) =  -652.684873541     A.U. after   10 cycles
 SCF Done:  E(RB3LYP) =  -652.683533570     A.U. after   12 cycles
 SCF Done:  E(RB3LYP) =  -652.681058733     A.U. after   10 cycles
 SCF Done:  E(RB3LYP) =  -652.681774095     A.U. after   10 cycles
 SCF Done:  E(RB3LYP) =  -652.684962268     A.U. after    8 cycles
 SCF Done:  E(RB3LYP) =  -652.684971905     A.U. after    9 cycles
 SCF Done:  E(RB3LYP) =  -652.684975030     A.U. after    8 cycles
 SCF Done:  E(RB3LYP) =  -652.684975637     A.U. after    7 cycles
 SCF Done:  E(RB3LYP) =  -652.684976040     A.U. after    7 cycles
 SCF Done:  E(RB3LYP) =  -652.684976162     A.U. after    8 cycles
 SCF Done:  E(RB3LYP) =  -652.684977061     A.U. after    8 cycles
 SCF Done:  E(RB3LYP) =  -652.684977229     A.U. after    8 cycles
 SCF Done:  E(RB3LYP) =  -652.684977230     A.U. after    6 cycles
 Optimization completed.
    -- Stationary point found.
 Normal termination of Gaussian 16 at Mon Jul 22 11:23:06 2024.

 ----------------------------------------------------------------------
 # freq B3LYP/6-31G** SCRF=(Solvent=water) volume NMR pop=NPA density=c
 urrent Geom=AllCheck Guess=Read
 ----------------------------------------------------------------------

 Structure from the checkpoint file:  "QYIMZXITLDTULQ-UHFFFAOYSA-N_conf_1_1.chk"
 ----------------------------------
 QYIMZXITLDTULQ-UHFFFAOYSA-N_conf_1
 ----------------------------------
 Charge =  0 Multiplicity = 1

 SCF Done:  E(RB3LYP) =  -652.684977230     A.U. after    1 cycles

      1  N    Isotropic =   200.6989   Anisotropy =    75.2431

      2  C    Isotropic =    50.8437   Anisotropy =   158.6295

      3  C    Isotropic =    85.4175   Anisotropy =   127.0281

      4  C    Isotropic =    65.9129   Anisotropy =   150.4109

      5  C    Isotropic =    63.2666   Anisotropy =   154.3558

      6  C    Isotropic =    63.2598   Anisotropy =   154.3060

      7  C    Isotropic =    65.8233   Anisotropy =   150.5219

      8  C    Isotropic =    85.4080   Anisotropy =   127.0568

      9  C    Isotropic =    50.8433   Anisotropy =   158.6003

     10  N    Isotropic =   200.6737   Anisotropy =    75.1182

     11  C    Isotropic =    80.8055   Anisotropy =   108.9330

     12  C    Isotropic =    57.3076   Anisotropy =   173.2422

     13  C    Isotropic =   169.8295   Anisotropy =    26.5678

     14  C    Isotropic =    57.2125   Anisotropy =   173.4096

     15  C    Isotropic =   169.7941   Anisotropy =    26.5540

     16  C    Isotropic =    80.7944   Anisotropy =   108.9150

     17  H    Isotropic =    28.6442   Anisotropy =    12.2995

     18  H    Isotropic =    28.6254   Anisotropy =    11.9240

     19  H    Isotropic =    25.2423   Anisotropy =     5.0942

     20  H    Isotropic =    24.9100   Anisotropy =     8.1791

     21  H    Isotropic =    24.8730   Anisotropy =     8.2112

     22  H    Isotropic =    25.2327   Anisotropy =     5.0699

     23  H    Isotropic =    28.6268   Anisotropy =    11.9776

     24  H    Isotropic =    28.6428   Anisotropy =    12.3744

     25  H    Isotropic =    25.2294   Anisotropy =     7.4326

     26  H    Isotropic =    30.1651   Anisotropy =     8.9059

     27  H    Isotropic =    29.9372   Anisotropy =     5.7265

     28  H    Isotropic =    29.7291   Anisotropy =     6.7710

     29  H    Isotropic =    30.1438   Anisotropy =     8.9334

     30  H    Isotropic =    29.6739   Anisotropy =     6.8248

     31  H    Isotropic =    29.9045   Anisotropy =     5.6450

     32  H    Isotropic =    25.2206   Anisotropy =     7.3994

  Exact polarizability: 317.909   8.051 167.433  -1.042  -0.034 160.517
 Approx polarizability: 347.128   7.089 201.586   0.884  -0.026 194.398

                      1                      2                      3
                      A                      A                      A
 Frequencies --     15.3678                57.5894                59.3919
 Red. masses --      3.6149                 4.4632                 4.4312
 Frc consts  --      0.0005                 0.0087                 0.0092
 IR Inten    --      0.5205                 2.3650                 1.5783

                      4                      5                      6
                      A                      A                      A
 Frequencies --     98.1900               102.6282               170.1147
 Red. masses --      1.0389                 1.0315                 3.6239
 Frc consts  --      0.0059                 0.0064                 0.0618
 IR Inten    --      0.6780                 0.3987                 0.2458

                      7                      8                      9
                      A                      A                      A
 Frequencies --    170.2792               216.6078               216.8093
 Red. masses --      3.6368                 3.1089                 3.1238
 Frc consts  --      0.0621                 0.0859                 0.0865
 IR Inten    --      1.5449                 6.5098                 8.5056

                     10                     11                     12
                      A                      A                      A
 Frequencies --    230.0776               298.6761               308.4128
 Red. masses --      4.7085                 1.9543                 1.1844
 Frc consts  --      0.1469                 0.1027                 0.0664
 IR Inten    --      0.5398                13.5385                31.2757

                     13                     14                     15
                      A                      A                      A
 Frequencies --    314.6084               323.2051               375.1814
 Red. masses --      1.2599                 2.4972                 4.0905
 Frc consts  --      0.0735                 0.1537                 0.3392
 IR Inten    --     26.8942                 3.9215                 1.4478

                     16                     17                     18
                      A                      A                      A
 Frequencies --    375.5519               449.3503               450.0644
 Red. masses --      4.1504                 2.9044                 2.8773
 Frc consts  --      0.3449                 0.3455                 0.3434
 IR Inten    --      6.0576                 9.6739                 6.2769

                     19                     20                     21
                      A                      A                      A
 Frequencies --    489.0132               495.1377               533.0100
 Red. masses --      3.4294                 3.3235                 5.7339
 Frc consts  --      0.4832                 0.4801                 0.9598
 IR Inten    --      1.3542                 5.8705                65.2518

                     22                     23                     24
                      A                      A                      A
 Frequencies --    553.1908               556.1017               592.8744
 Red. masses --      4.0171                 4.5426                 1.9870
 Frc consts  --      0.7243                 0.8277                 0.4115
 IR Inten    --     76.2367                23.6353                85.0462

                     25                     26                     27
                      A                      A                      A
 Frequencies --    594.5424               638.7536               644.4409
 Red. masses --      1.9755                 2.3531                 1.8270
 Frc consts  --      0.4114                 0.5657                 0.4470
 IR Inten    --    369.4177                39.4562               564.4152

                     28                     29                     30
                      A                      A                      A
 Frequencies --    683.9454               742.6901               744.2667
 Red. masses --      2.9649                 4.7185                 4.5599
 Frc consts  --      0.8171                 1.5334                 1.4882
 IR Inten    --     16.0185                 1.5036                 7.7549

                     31                     32                     33
                      A                      A                      A
 Frequencies --    748.5820               750.1597               829.2117
 Red. masses --      4.6930                 4.5568                 1.4648
 Frc consts  --      1.5495                 1.5108                 0.5934
 IR Inten    --     21.1381                 8.4079                43.7310

                     34                     35                     36
                      A                      A                      A
 Frequencies --    829.7306               865.7162               866.1052
 Red. masses --      1.4751                 1.4098                 1.4060
 Frc consts  --      0.5983                 0.6225                 0.6214
 IR Inten    --     37.6664                28.1448                24.8235

                     37                     38                     39
                      A                      A                      A
 Frequencies --    948.5911               949.9147               959.9706
 Red. masses --      1.3629                 1.3127                 2.5466
 Frc consts  --      0.7226                 0.6979                 1.3827
 IR Inten    --      0.5029                 0.4522                 4.3299

                     40                     41                     42
                      A                      A                      A
 Frequencies --    966.9844              1015.5089              1021.3704
 Red. masses --      3.1847                 4.2211                 1.7440
 Frc consts  --      1.7545                 2.5647                 1.0719
 IR Inten    --      0.5052                17.4025                13.9915

                     43                     44                     45
                      A                      A                      A
 Frequencies --   1022.4460              1058.4110              1060.5977
 Red. masses --      1.5218                 1.5146                 1.5136
 Frc consts  --      0.9373                 0.9997                 1.0031
 IR Inten    --      6.0510                 7.2398                 4.3838

                     46                     47                     48
                      A                      A                      A
 Frequencies --   1116.5665              1120.6362              1142.4611
 Red. masses --      1.5028                 1.4392                 1.6822
 Frc consts  --      1.1039                 1.0649                 1.2937
 IR Inten    --      0.0150                 1.0805                 4.3479

                     49                     50                     51
                      A                      A                      A
 Frequencies --   1158.5338              1194.1654              1199.6540
 Red. masses --      1.4229                 1.5861                 1.6155
 Frc consts  --      1.1252                 1.3327                 1.3698
 IR Inten    --     21.5023                 2.4431                 9.6009

                     52                     53                     54
                      A                      A                      A
 Frequencies --   1277.9937              1281.9943              1310.3407
 Red. masses --      1.6923                 1.7299                 2.5142
 Frc consts  --      1.6285                 1.6751                 2.5434
 IR Inten    --      0.9152               151.2451                 2.0957

                     55                     56                     57
                      A                      A                      A
 Frequencies --   1331.2164              1337.2401              1344.7536
 Red. masses --      3.5605                 4.7770                 3.1303
 Frc consts  --      3.7176                 5.0329                 3.3352
 IR Inten    --    123.9931                 4.8336                38.8130

                     58                     59                     60
                      A                      A                      A
 Frequencies --   1345.8452              1420.0502              1424.4268
 Red. masses --      3.0498                 1.2519                 1.2468
 Frc consts  --      3.2547                 1.4875                 1.4905
 IR Inten    --      7.8313                 1.1959                 0.1951

                     61                     62                     63
                      A                      A                      A
 Frequencies --   1465.9570              1471.6279              1483.6685
 Red. masses --      1.9490                 2.0330                 1.0457
 Frc consts  --      2.4678                 2.5941                 1.3562
 IR Inten    --      5.9289                 0.0067                 7.4623

                     64                     65                     66
                      A                      A                      A
 Frequencies --   1488.0799              1498.4258              1500.4846
 Red. masses --      1.0473                 1.5161                 1.3617
 Frc consts  --      1.3664                 2.0056                 1.8064
 IR Inten    --      9.8923                12.8333                 4.8174

                     67                     68                     69
                      A                      A                      A
 Frequencies --   1531.5761              1554.5911              1614.5899
 Red. masses --      2.2895                 3.2595                 6.1000
 Frc consts  --      3.1643                 4.6413                 9.3692
 IR Inten    --    248.6343                 2.2984                33.0074

                     70                     71                     72
                      A                      A                      A
 Frequencies --   1615.3164              1653.3455              1653.4768
 Red. masses --      5.9906                 1.4442                 1.4503
 Frc consts  --      9.2094                 2.3259                 2.3361
 IR Inten    --      9.2847                13.3150                14.2791

                     73                     74                     75
                      A                      A                      A
 Frequencies --   1666.2198              1667.5983              3041.7518
 Red. masses --      2.7358                 2.9540                 1.0370
 Frc consts  --      4.4750                 4.8400                 5.6530
 IR Inten    --     10.1610               501.5896                31.8973

                     76                     77                     78
                      A                      A                      A
 Frequencies --   3042.2331              3096.9878              3097.5607
 Red. masses --      1.0369                 1.1004                 1.1005
 Frc consts  --      5.6544                 6.2184                 6.2215
 IR Inten    --     50.6380                23.5112                26.1574

                     79                     80                     81
                      A                      A                      A
 Frequencies --   3125.6084              3125.7554              3164.4121
 Red. masses --      1.1023                 1.1022                 1.0901
 Frc consts  --      6.3446                 6.3448                 6.4311
 IR Inten    --     68.7667                14.1721                64.3133

                     82                     83                     84
                      A                      A                      A
 Frequencies --   3164.7226              3170.5196              3170.6066
 Red. masses --      1.0900                 1.0868                 1.0868
 Frc consts  --      6.4319                 6.4367                 6.4372
 IR Inten    --     26.6464                37.8642                 3.9385

                     85                     86                     87
                      A                      A                      A
 Frequencies --   3187.1790              3187.7223              3556.1041
 Red. masses --      1.0948                 1.0950                 1.0486
 Frc consts  --      6.5525                 6.5555                 7.8130
 IR Inten    --     37.9751                31.4896                39.2054

                     88                     89                     90
                      A                      A                      A
 Frequencies --   3556.2047              3657.2126              3657.3104
 Red. masses --      1.0486                 1.0979                 1.0979
 Frc consts  --      7.8135                 8.6522                 8.6527
 IR Inten    --     18.7006                20.4662                20.5835

 - Thermochemistry -
 -------------------
 Temperature   298.150 Kelvin.  Pressure   1.00000 Atm.
 Atom     1 has atomic number  7 and mass  14.00307

 Molecular mass:   212.13135 amu.
 Principal axes and moments of inertia in atomic units:
                           1         2         3
     Eigenvalues --  1330.165136714.547426791.50524
           X            0.99999  -0.00142  -0.00298
           Y            0.00143   0.99998   0.00558
           Z            0.00297  -0.00558   0.99998
 This molecule is an asymmetric top.
 Rotational symmetry number  1.
 Warning -- assumption of classical behavior for rotation
           may cause significant error
 Rotational temperatures (Kelvin)      0.06512     0.01290     0.01275
 Rotational constants (GHZ):           1.35678     0.26878     0.26574
 Zero-point vibrational energy     707388.4 (Joules/Mol)
                                  169.06988 (Kcal/Mol)
 Warning -- explicit consideration of  25 degrees of freedom as
           vibrations may cause significant error
 Vibrational temperatures:     22.11    82.86    85.45   141.27   147.66
          (Kelvin)            244.76   244.99   311.65   311.94   331.03
                              429.73   443.74   452.65   465.02   539.80
                              540.34   646.51   647.54   703.58   712.39
                              766.88   795.92   800.11   853.01   855.41
                              919.02   927.21   984.04  1068.57  1070.83
                             1077.04  1079.31  1193.05  1193.80  1245.57
                             1246.13  1364.81  1366.72  1381.18  1391.27
                             1461.09  1469.52  1471.07  1522.82  1525.96
                             1606.49  1612.35  1643.75  1666.87  1718.14
                             1726.03  1838.75  1844.50  1885.29  1915.32
                             1923.99  1934.80  1936.37  2043.14  2049.43
                             2109.19  2117.34  2134.67  2141.02  2155.90
                             2158.86  2203.60  2236.71  2323.03  2324.08
                             2378.80  2378.98  2397.32  2399.30  4376.40
                             4377.09  4455.87  4456.70  4497.05  4497.26
                             4552.88  4553.33  4561.67  4561.80  4585.64
                             4586.42  5116.44  5116.59  5261.91  5262.05

 Zero-point correction=                           0.269430 (Hartree/Particle)
 Thermal correction to Energy=                    0.284900
 Thermal correction to Enthalpy=                  0.285845
 Thermal correction to Gibbs Free Energy=         0.226177
 Sum of electronic and zero-point Energies=           -652.415547
 Sum of electronic and thermal Energies=              -652.400077
 Sum of electronic and thermal Enthalpies=            -652.399133
 Sum of electronic and thermal Free Energies=         -652.458800

                     E (Thermal)             CV                S
                      KCal/Mol        Cal/Mol-Kelvin    Cal/Mol-Kelvin
 Total                  178.778             60.324            125.581
 Electronic               0.000              0.000              0.000
 Translational            0.889              2.981             41.960
 Rotational               0.889              2.981             32.473
 Vibrational            177.000             54.362             51.149
 Vibration     1          0.593              1.986              7.157
 Vibration     2          0.596              1.974              4.538
 Vibration     3          0.597              1.974              4.477
 Vibration     4          0.604              1.950              3.490
 Vibration     5          0.605              1.947              3.404
 Vibration     6          0.625              1.879              2.434
 Vibration     7          0.625              1.879              2.432
 Vibration     8          0.645              1.816              1.987
 Vibration     9          0.646              1.815              1.986
 Vibration    10          0.652              1.795              1.878
 Vibration    11          0.692              1.676              1.424
 Vibration    12          0.698              1.658              1.371
 Vibration    13          0.702              1.646              1.338
 Vibration    14          0.708              1.629              1.294
 Vibration    15          0.746              1.523              1.059
 Vibration    16          0.746              1.522              1.057
 Vibration    17          0.808              1.362              0.798
 Vibration    18          0.809              1.361              0.796
 Vibration    19          0.845              1.274              0.686
 Vibration    20          0.851              1.261              0.670
 Vibration    21          0.888              1.177              0.581
 Vibration    22          0.909              1.133              0.538
 Vibration    23          0.912              1.126              0.532
 Vibration    24          0.950              1.047              0.462
 Vibration    25          0.952              1.043              0.459

 Optimization completed.
    -- Stationary point found.
 Normal termination of Gaussian 16 at Mon Jul 22 11:37:51 2024.
 Gaussian 16:  ES64L-G16RevA.03 25-Dec-2016

 ----------------------------------------------------------------------
 # TD(NStates=10, Root=1) B3LYP/6-31G** SCRF=(Solvent=water) volume pop
 =NPA density=current Geom=AllCheck Guess=Read
 ----------------------------------------------------------------------

 Structure from the checkpoint file:  "QYIMZXITLDTULQ-UHFFFAOYSA-N_conf_1_2.chk"
 ----------------------------------
 QYIMZXITLDTULQ-UHFFFAOYSA-N_conf_1
 ----------------------------------
 Charge =  0 Multiplicity = 1

                         Standard orientation:
 ---------------------------------------------------------------------
 Center     Atomic      Atomic             Coordinates (Angstroms)
 Number     Number       Type             X           Y           Z
 ---------------------------------------------------------------------
      1          7           0       -4.982017   -0.103484   -0.379415
      2          6           0       -3.586020   -0.110155   -0.303776
      3          6           0       -2.821062   -0.959533   -1.118780
      4          6           0       -1.430083   -0.900618   -1.071395
      5          6           0       -0.748501   -0.012402   -0.227529
      6          6           0        0.749674    0.017965   -0.223384
      7          6           0        1.436035    0.892969   -1.077125
      8          6           0        2.827292    0.948157   -1.120701
      9          6           0        3.587651    0.109257   -0.290685
     10          7           0        4.983137    0.190663   -0.267526
     11          6           0        2.905963   -0.772411    0.566303
     12          6           0        1.510224   -0.830929    0.612855
     13          6           0        0.836145   -1.807623    1.550274
     14          6           0       -1.513664    0.845312    0.595359
     15          6           0       -0.844695    1.830646    1.527360
     16          6           0       -2.909118    0.783228    0.544840
     17          1           0       -5.388300   -0.975866   -0.693753
     18          1           0       -5.445806    0.227726    0.457346
     19          1           0       -3.316768   -1.659445   -1.786556
     20          1           0       -0.852381   -1.565332   -1.708758
     21          1           0        0.861942    1.545439   -1.730196
     22          1           0        3.326731    1.638134   -1.795994
     23          1           0        5.447507   -0.654726    0.040136
     24          1           0        5.396516    0.535716   -1.124842
     25          1           0        3.485245   -1.429005    1.212116
     26          1           0        1.572383   -2.359768    2.140221
     27          1           0        0.159913   -1.296527    2.244407
     28          1           0        0.227502   -2.534263    1.001097
     29          1           0       -1.584081    2.387611    2.108780
     30          1           0       -0.234289    2.552749    0.974170
     31          1           0       -0.171034    1.326691    2.229163
     32          1           0       -3.491967    1.447434    1.179552
 ---------------------------------------------------------------------

 SCF Done:  E(RB3LYP) =  -652.684977230     A.U. after    1 cycles

 Excitation energies and oscillator strengths:

 Excited State   1:      Singlet-A      4.7080 eV  263.35 nm  f=0.0648  <S**2>=0.000
      54 -> 60         0.13957
      55 -> 61         0.12409
      56 -> 59         0.17215
      57 -> 58         0.65708
 This state for optimization and/or second-order correction.
 Total Energy, E(TD-HF/TD-DFT) =  -652.511959997
 Copying the excited state density for this state as the 1-particle RhoCI density.

 Excited State   2:      Singlet-A      4.7382 eV  261.67 nm  f=0.0599  <S**2>=0.000
      54 -> 61        -0.13424
      55 -> 60        -0.14684
      56 -> 58         0.62635
      57 -> 59         0.25416

 Excited State   3:      Singlet-A      4.9472 eV  250.62 nm  f=0.0081  <S**2>=0.000
      56 -> 58        -0.28572
      57 -> 59         0.63302

 Excited State   4:      Singlet-A      4.9780 eV  249.07 nm  f=0.0185  <S**2>=0.000
      56 -> 59         0.66040
      57 -> 58        -0.20883

 Excited State   5:      Singlet-A      5.1207 eV  242.13 nm  f=0.1305  <S**2>=0.000
      56 -> 61         0.30491
      57 -> 60         0.63214

 Excited State   6:      Singlet-A      5.1475 eV  240.86 nm  f=0.0015  <S**2>=0.000
      56 -> 60         0.53176
      57 -> 61         0.45814

 Excited State   7:      Singlet-A      5.3613 eV  231.26 nm  f=0.9641  <S**2>=0.000
      56 -> 61         0.62577
      57 -> 60        -0.30236

 Excited State   8:      Singlet-A      5.5388 eV  223.85 nm  f=0.0003  <S**2>=0.000
      54 -> 59         0.12901
      55 -> 58        -0.22534
      56 -> 60        -0.42050
      57 -> 61         0.49461

 Excited State   9:      Singlet-A      5.9970 eV  206.74 nm  f=0.0973  <S**2>=0.000
      54 -> 58         0.60408
      55 -> 59         0.35778

 Excited State  10:      Singlet-A      6.0026 eV  206.55 nm  f=0.0083  <S**2>=0.000
      54 -> 59         0.40013
      55 -> 58         0.56568

 The electronic state is 1-A.
 Alpha  occ. eigenvalues --  -14.33456 -14.33456 -10.22382 -10.22381 -10.19336
 Alpha  occ. eigenvalues --  -10.19334 -10.18346 -10.18344 -10.18038 -10.18011
 Alpha  occ. eigenvalues --  -10.17732 -10.17731 -10.17658 -10.17653 -10.17646
 Alpha  occ. eigenvalues --  -10.17644  -0.91187  -0.91136  -0.85066  -0.82476
 Alpha  occ. eigenvalues --   -0.76045  -0.76034  -0.74554  -0.70368  -0.68301
 Alpha  occ. eigenvalues --   -0.67055  -0.60735  -0.59451  -0.58609  -0.56284
 Alpha  occ. eigenvalues --   -0.50984  -0.50408  -0.49922  -0.49472  -0.47436
 Alpha  occ. eigenvalues --   -0.43857  -0.43802  -0.43099  -0.41950  -0.41193
 Alpha  occ. eigenvalues --   -0.40828  -0.40220  -0.39909  -0.39181  -0.37610
 Alpha  occ. eigenvalues --   -0.37152  -0.36827  -0.36344  -0.33426  -0.33376
 Alpha  occ. eigenvalues --   -0.32798  -0.29730  -0.29484  -0.24001  -0.23915
 Alpha  occ. eigenvalues --   -0.19976  -0.19816
 Alpha virt. eigenvalues --    0.00133   0.00852   0.01409   0.01828   0.09392
 Alpha virt. eigenvalues --    0.09675   0.10414   0.11364   0.12711   0.12782
 Alpha virt. eigenvalues --    0.13157   0.14545   0.14836   0.16049   0.16383

 Mulliken charges:
               1
     1  N   -0.627661
     2  C    0.268778
     3  C   -0.150911
     4  C   -0.154961
     5  C   -0.008190
     6  C   -0.008693
     7  C   -0.154472
     8  C   -0.150741
     9  C    0.269202
    10  N   -0.629831
    11  C   -0.204692
    12  C    0.089065
    13  C   -0.383460
    14  C    0.088579
    15  C   -0.383362
    16  C   -0.204487
    17  H    0.293772
    18  H    0.293216
    19  H    0.083768
    20  H    0.077993
    21  H    0.078229
    22  H    0.083363
    23  H    0.292399
    24  H    0.293305
    25  H    0.077094
    26  H    0.108090
    27  H    0.119869
    28  H    0.120098
    29  H    0.108056
    30  H    0.120256
    31  H    0.119671
    32  H    0.076656
 Sum of Mulliken charges =   0.00000

 Dipole moment (field-independent basis, Debye):
    X=             -0.0650    Y=             -1.7549    Z=              0.3005  Tot=              1.7816
 Quadrupole moment (field-independent basis, Debye-Ang):
   XX=            -45.3329   YY=            -93.4137   ZZ=            -94.2082
   XY=              1.0877   XZ=             -9.8873   YZ=              0.2799

 Summary of Natural Population Analysis:

                                       Natural Population
                Natural  -----------------------------------------------
    Atom  No    Charge         Core      Valence    Rydberg      Total
 -----------------------------------------------------------------------
      N    1   -0.77285      1.99949     5.76237    0.01099     7.77285
      C    2    0.18557      1.99897     3.79756    0.01789     5.81443
      C    3   -0.31827      1.99903     4.30305    0.01618     6.31827
      C    4   -0.28502      1.99905     4.26863    0.01735     6.28502
      C    5   -0.01576      1.99895     3.99969    0.01712     6.01576
      C    6   -0.01844      1.99895     4.00238    0.01711     6.01844
      C    7   -0.28380      1.99905     4.26746    0.01729     6.28380
      C    8   -0.31802      1.99903     4.30291    0.01608     6.31802
      C    9    0.18551      1.99897     3.79764    0.01788     5.81449
      N   10   -0.77630      1.99949     5.76578    0.01103     7.77630
      C   11   -0.33002      1.99898     4.31553    0.01551     6.33002
      C   12   -0.04653      1.99898     4.03168    0.01588     6.04653
      C   13   -0.69918      1.99940     4.69298    0.00680     6.69918
      C   14   -0.04792      1.99898     4.03299    0.01595     6.04792
      C   15   -0.69907      1.99940     4.69286    0.00681     6.69907
      C   16   -0.33033      1.99898     4.31576    0.01559     6.33033
      H   17    0.42206      0.00000     0.57527    0.00268     0.57794
      H   18    0.42153      0.00000     0.57566    0.00282     0.57847
      H   19    0.23823      0.00000     0.76011    0.00166     0.76177
      H   20    0.23935      0.00000     0.75908    0.00157     0.76065
      H   21    0.23945      0.00000     0.75899    0.00156     0.76055
      H   22    0.23804      0.00000     0.76031    0.00165     0.76196
      H   23    0.42109      0.00000     0.57609    0.00282     0.57891
      H   24    0.42187      0.00000     0.57551    0.00262     0.57813
      H   25    0.23391      0.00000     0.76431    0.00179     0.76609
      H   26    0.23991      0.00000     0.75879    0.00131     0.76009
      H   27    0.24371      0.00000     0.75481    0.00149     0.75629
      H   28    0.24710      0.00000     0.75121    0.00169     0.75290
      H   29    0.23989      0.00000     0.75880    0.00130     0.76011
      H   30    0.24724      0.00000     0.75108    0.00167     0.75276
      H   31    0.24349      0.00000     0.75502    0.00149     0.75651
      H   32    0.23357      0.00000     0.76462    0.00181     0.76643
 =======================================================================
   * Total *    0.00000     31.98573    81.74890    0.26536   114.00000

 Normal termination of Gaussian 16 at Mon Jul 22 11:49:37 2024.
