 Gaussian 16, Revision A.03,

 -------------------------------------------------------
 # opt=CalcFc B3LYP/6-31G** SCRF=(Solvent=water) scf=xqc
 -------------------------------------------------------

 ----------------------------------
 GEQHKFFSPGPGLN-OLQVQODUSA-N_conf_0
 ----------------------------------
 Symbolic Z-matrix:
 Charge =  0 Multiplicity = 1

 SCF Done:  E(RB3LYP) =  -346.597841810     A.U. after   11 cycles
 SCF Done:  E(RB3LYP) =  -346.599937447     A.U. after    9 cycles
 SCF Done:  E(RB3LYP) =  -346.600022042     A.U. after    8 cycles
 SCF Done:  E(RB3LYP) =  -346.600024180     A.U. after    7 cycles
 Optimization completed.
    -- Stationary point found.
 Normal termination of Gaussian 16 at Wed Jul 17 18:18:10 2024.

 ----------------------------------------------------------------------
 # freq B3LYP/6-31G** SCRF=(Solvent=water) volume NMR pop=NPA density=c
 urrent Geom=AllCheck Guess=Read
 ----------------------------------------------------------------------

 Structure from the checkpoint file:  "GEQHKFFSPGPGLN-OLQVQODUSA-N_conf_0_1.chk"
 ----------------------------------
 GEQHKFFSPGPGLN-OLQVQODUSA-N_conf_0
 ----------------------------------
 Charge =  0 Multiplicity = 1

 SCF Done:  E(RB3LYP) =  -346.600024180     A.U. after    1 cycles

      1  N    Isotropic =   221.7330   Anisotropy =    63.7901

      2  C    Isotropic =   142.1415   Anisotropy =    28.5062

      3  C    Isotropic =   154.6720   Anisotropy =     6.2609

      4  C    Isotropic =   142.3643   Anisotropy =    26.6781

      5  N    Isotropic =   215.0236   Anisotropy =    37.3409

      6  C    Isotropic =   157.5100   Anisotropy =    11.4457

      7  C    Isotropic =   174.0689   Anisotropy =    12.6560

      8  C    Isotropic =   154.3009   Anisotropy =    16.6249

      9  H    Isotropic =    28.1820   Anisotropy =    12.4508

     10  H    Isotropic =    31.8331   Anisotropy =    14.6694

     11  H    Isotropic =    28.8071   Anisotropy =     8.3374

     12  H    Isotropic =    30.1905   Anisotropy =     8.0976

     13  H    Isotropic =    30.1693   Anisotropy =     7.5468

     14  H    Isotropic =    28.3356   Anisotropy =     8.7938

     15  H    Isotropic =    31.1387   Anisotropy =    14.1002

     16  H    Isotropic =    30.9694   Anisotropy =    12.4303

     17  H    Isotropic =    30.3130   Anisotropy =     8.2818

     18  H    Isotropic =    30.2341   Anisotropy =     8.6628

     19  H    Isotropic =    30.6431   Anisotropy =    10.4442

     20  H    Isotropic =    29.4251   Anisotropy =     6.1101

     21  H    Isotropic =    30.1321   Anisotropy =     7.9713

     22  H    Isotropic =    30.3522   Anisotropy =     8.5834

  Exact polarizability: 101.198  -0.634  96.739  -0.113   1.751  95.525
 Approx polarizability: 105.045   0.040 103.101  -0.680   3.664 105.455

                      1                      2                      3
                      A                      A                      A
 Frequencies --    143.6101               191.5309               254.3754
 Red. masses --      2.8905                 3.0340                 1.4319
 Frc consts  --      0.0351                 0.0656                 0.0546
 IR Inten    --      3.4282                 0.9768                59.9218

                      4                      5                      6
                      A                      A                      A
 Frequencies --    283.2364               334.8848               372.0309
 Red. masses --      1.5634                 2.6854                 1.9958
 Frc consts  --      0.0739                 0.1774                 0.1628
 IR Inten    --     48.5522                 7.0128                20.8073

                      7                      8                      9
                      A                      A                      A
 Frequencies --    384.2411               403.9883               433.1081
 Red. masses --      1.5208                 1.7293                 1.7023
 Frc consts  --      0.1323                 0.1663                 0.1881
 IR Inten    --     16.1985                34.6457                 0.1356

                     10                     11                     12
                      A                      A                      A
 Frequencies --    502.4680               592.5458               700.6006
 Red. masses --      2.1250                 3.8408                 2.0040
 Frc consts  --      0.3161                 0.7945                 0.5796
 IR Inten    --      6.7049                19.2245                 8.5685

                     13                     14                     15
                      A                      A                      A
 Frequencies --    757.9523               809.6571               838.7966
 Red. masses --      3.3126                 2.5556                 2.2821
 Frc consts  --      1.1212                 0.9871                 0.9460
 IR Inten    --      2.3099                 4.8287                31.2039

                     16                     17                     18
                      A                      A                      A
 Frequencies --    866.9564               883.6783               931.2984
 Red. masses --      1.6384                 1.6435                 1.6620
 Frc consts  --      0.7255                 0.7562                 0.8493
 IR Inten    --     93.7123                13.8948                65.5764

                     19                     20                     21
                      A                      A                      A
 Frequencies --    960.2393               986.5576              1008.2309
 Red. masses --      1.8994                 1.9997                 1.6196
 Frc consts  --      1.0319                 1.1467                 0.9700
 IR Inten    --     97.7060                 5.2390                67.8420

                     22                     23                     24
                      A                      A                      A
 Frequencies --   1018.0751              1043.0035              1070.4298
 Red. masses --      1.9417                 1.7781                 1.8564
 Frc consts  --      1.1858                 1.1397                 1.2532
 IR Inten    --     34.3419                 6.6239                 5.8742

                     25                     26                     27
                      A                      A                      A
 Frequencies --   1081.7782              1134.9902              1139.9635
 Red. masses --      1.6759                 1.1867                 1.1399
 Frc consts  --      1.1555                 0.9007                 0.8727
 IR Inten    --     41.5310                 8.5422                11.9532

                     28                     29                     30
                      A                      A                      A
 Frequencies --   1176.1703              1214.5639              1257.7656
 Red. masses --      1.5524                 1.3284                 1.2628
 Frc consts  --      1.2653                 1.1545                 1.1770
 IR Inten    --     16.3683                 4.5595                 0.9583

                     31                     32                     33
                      A                      A                      A
 Frequencies --   1290.4792              1304.5715              1348.5393
 Red. masses --      1.1936                 1.4174                 1.5651
 Frc consts  --      1.1711                 1.4213                 1.6770
 IR Inten    --      2.0214                 2.7202                14.4112

                     34                     35                     36
                      A                      A                      A
 Frequencies --   1362.8459              1377.5914              1387.0601
 Red. masses --      1.3351                 1.4894                 1.6827
 Frc consts  --      1.4610                 1.6654                 1.9075
 IR Inten    --      3.6236                 5.3474                 5.7984

                     37                     38                     39
                      A                      A                      A
 Frequencies --   1396.6070              1410.8896              1411.4876
 Red. masses --      1.3997                 1.3461                 1.4547
 Frc consts  --      1.6086                 1.5788                 1.7076
 IR Inten    --      7.0263                 9.8010                11.1499

                     40                     41                     42
                      A                      A                      A
 Frequencies --   1439.0162              1479.7660              1488.8322
 Red. masses --      1.4478                 1.0933                 1.0945
 Frc consts  --      1.7664                 1.4105                 1.4295
 IR Inten    --      5.0008                 5.2968                 1.7000

                     43                     44                     45
                      A                      A                      A
 Frequencies --   1493.8000              1504.5540              1646.9577
 Red. masses --      1.0899                 1.1006                 1.0864
 Frc consts  --      1.4329                 1.4679                 1.7362
 IR Inten    --     10.2174                 5.9138                62.2061

                     46                     47                     48
                      A                      A                      A
 Frequencies --   1652.0635              2950.0627              3001.2309
 Red. masses --      1.0877                 1.0833                 1.0763
 Frc consts  --      1.7491                 5.5546                 5.7120
 IR Inten    --     35.8606               131.0662                32.1191

                     49                     50                     51
                      A                      A                      A
 Frequencies --   3014.1475              3023.5434              3037.9486
 Red. masses --      1.0696                 1.0607                 1.0629
 Frc consts  --      5.7252                 5.7134                 5.7798
 IR Inten    --    125.7427                68.0623               119.1905

                     52                     53                     54
                      A                      A                      A
 Frequencies --   3042.2774              3054.5114              3060.4888
 Red. masses --      1.0701                 1.0951                 1.1003
 Frc consts  --      5.8354                 6.0201                 6.0722
 IR Inten    --     26.0977                74.1420                70.8534

                     55                     56                     57
                      A                      A                      A
 Frequencies --   3076.1513              3084.0363              3441.9754
 Red. masses --      1.1035                 1.1030                 1.0511
 Frc consts  --      6.1523                 6.1812                 7.3367
 IR Inten    --     48.2600               110.7430                56.2987

                     58                     59                     60
                      A                      A                      A
 Frequencies --   3476.7248              3536.4585              3557.0825
 Red. masses --      1.0505                 1.0918                 1.0922
 Frc consts  --      7.4815                 8.0449                 8.1423
 IR Inten    --      1.4395                13.3102                 0.1351

 - Thermochemistry -
 -------------------
 Temperature   298.150 Kelvin.  Pressure   1.00000 Atm.
 Atom     1 has atomic number  7 and mass  14.00307

 Molecular mass:   114.11570 amu.
 Principal axes and moments of inertia in atomic units:
                           1         2         3
     Eigenvalues --   726.52348 859.107331135.57330
           X            0.99814  -0.06088   0.00200
           Y            0.06090   0.99807  -0.01209
           Z           -0.00126   0.01219   0.99992
 This molecule is an asymmetric top.
 Rotational symmetry number  1.
 Warning -- assumption of classical behavior for rotation
           may cause significant error
 Rotational temperatures (Kelvin)      0.11922     0.10082     0.07627
 Rotational constants (GHZ):           2.48408     2.10072     1.58928
 Zero-point vibrational energy     539087.7 (Joules/Mol)
                                  128.84506 (Kcal/Mol)
 Warning -- explicit consideration of  11 degrees of freedom as
           vibrations may cause significant error
 Vibrational temperatures:    206.62   275.57   365.99   407.51   481.82
          (Kelvin)            535.27   552.84   581.25   623.15   722.94
                              852.54  1008.01  1090.52  1164.92  1206.84
                             1247.36  1271.42  1339.93  1381.57  1419.44
                             1450.62  1464.78  1500.65  1540.11  1556.44
                             1633.00  1640.15  1692.25  1747.49  1809.64
                             1856.71  1876.99  1940.25  1960.83  1982.05
                             1995.67  2009.41  2029.96  2030.82  2070.42
                             2129.05  2142.10  2149.25  2164.72  2369.60
                             2376.95  4244.48  4318.10  4336.69  4350.20
                             4370.93  4377.16  4394.76  4403.36  4425.90
                             4437.24  4952.23  5002.23  5088.17  5117.85

 Zero-point correction=                           0.205328 (Hartree/Particle)
 Thermal correction to Energy=                    0.213274
 Thermal correction to Enthalpy=                  0.214219
 Thermal correction to Gibbs Free Energy=         0.173814
 Sum of electronic and zero-point Energies=           -346.394697
 Sum of electronic and thermal Energies=              -346.386750
 Sum of electronic and thermal Enthalpies=            -346.385806
 Sum of electronic and thermal Free Energies=         -346.426210

                     E (Thermal)             CV                S
                      KCal/Mol        Cal/Mol-Kelvin    Cal/Mol-Kelvin
 Total                  133.832             32.409             85.038
 Electronic               0.000              0.000              0.000
 Translational            0.889              2.981             40.112
 Rotational               0.889              2.981             28.052
 Vibrational            132.054             26.447             16.875
 Vibration     1          0.616              1.910              2.755
 Vibration     2          0.634              1.852              2.213
 Vibration     3          0.665              1.755              1.700
 Vibration     4          0.682              1.705              1.514
 Vibration     5          0.716              1.606              1.236
 Vibration     6          0.744              1.530              1.071
 Vibration     7          0.753              1.504              1.022
 Vibration     8          0.769              1.462              0.948
 Vibration     9          0.794              1.398              0.849
 Vibration    10          0.858              1.245              0.652
 Vibration    11          0.950              1.048              0.463

 Optimization completed.
    -- Stationary point found.
 Normal termination of Gaussian 16 at Wed Jul 17 18:23:18 2024.
 Gaussian 16:  ES64L-G16RevA.03 25-Dec-2016

 ----------------------------------------------------------------------
 # TD(NStates=10, Root=1) B3LYP/6-31G** SCRF=(Solvent=water) volume pop
 =NPA density=current Geom=AllCheck Guess=Read
 ----------------------------------------------------------------------

 Structure from the checkpoint file:  "GEQHKFFSPGPGLN-OLQVQODUSA-N_conf_0_2.chk"
 ----------------------------------
 GEQHKFFSPGPGLN-OLQVQODUSA-N_conf_0
 ----------------------------------
 Charge =  0 Multiplicity = 1

                         Standard orientation:
 ---------------------------------------------------------------------
 Center     Atomic      Atomic             Coordinates (Angstroms)
 Number     Number       Type             X           Y           Z
 ---------------------------------------------------------------------
      1          7           0       -1.480733   -1.282483   -0.729927
      2          6           0       -1.293744   -0.405325    0.442074
      3          6           0        0.013822   -0.775018    1.170717
      4          6           0        1.297392   -0.293372    0.464062
      5          7           0        1.510101   -1.056625   -0.784341
      6          6           0        1.209279    1.209047    0.139933
      7          6           0       -0.067647    1.572906   -0.631072
      8          6           0       -1.317639    1.109131    0.129646
      9          1           0       -0.642488   -1.211588   -1.308123
     10          1           0       -2.257543   -0.930289   -1.288225
     11          1           0       -2.126280   -0.612245    1.129650
     12          1           0       -0.004645   -0.324131    2.170601
     13          1           0        0.054859   -1.861997    1.315178
     14          1           0        2.134896   -0.436022    1.168167
     15          1           0        2.388587   -0.763242   -1.208924
     16          1           0        1.630342   -2.042099   -0.556208
     17          1           0        1.232687    1.763987    1.087480
     18          1           0        2.101482    1.516555   -0.421193
     19          1           0       -0.107938    2.655736   -0.798144
     20          1           0       -0.043556    1.103493   -1.621238
     21          1           0       -1.388588    1.663128    1.077191
     22          1           0       -2.226172    1.348256   -0.438498
 ---------------------------------------------------------------------

 SCF Done:  E(RB3LYP) =  -346.600024180     A.U. after    1 cycles

 Excitation energies and oscillator strengths:

 Excited State   1:      Singlet-A      7.0195 eV  176.63 nm  f=0.0057  <S**2>=0.000
      31 -> 33         0.12930
      32 -> 33         0.68109
 This state for optimization and/or second-order correction.
 Total Energy, E(TD-HF/TD-DFT) =  -346.342061105
 Copying the excited state density for this state as the 1-particle RhoCI density.

 Excited State   2:      Singlet-A      7.2904 eV  170.06 nm  f=0.0313  <S**2>=0.000
      31 -> 33         0.66653
      32 -> 33        -0.12178
      32 -> 34         0.15615

 Excited State   3:      Singlet-A      8.0593 eV  153.84 nm  f=0.0034  <S**2>=0.000
      31 -> 33        -0.13324
      32 -> 33         0.11899
      32 -> 34         0.58096
      32 -> 35         0.32016

 Excited State   4:      Singlet-A      8.2020 eV  151.16 nm  f=0.0535  <S**2>=0.000
      32 -> 34        -0.33421
      32 -> 35         0.60711

 Excited State   5:      Singlet-A      8.5055 eV  145.77 nm  f=0.0010  <S**2>=0.000
      31 -> 33        -0.12347
      31 -> 34         0.64727
      31 -> 35        -0.17797

 Excited State   6:      Singlet-A      8.6392 eV  143.51 nm  f=0.1536  <S**2>=0.000
      31 -> 34         0.16689
      31 -> 35         0.66495

 Excited State   7:      Singlet-A      8.8580 eV  139.97 nm  f=0.0251  <S**2>=0.000
      31 -> 37         0.31324
      32 -> 36        -0.28532
      32 -> 37         0.52480
      32 -> 38         0.10609

 Excited State   8:      Singlet-A      8.8880 eV  139.50 nm  f=0.0206  <S**2>=0.000
      31 -> 37         0.31891
      32 -> 36         0.53411
      32 -> 37         0.14733
      32 -> 38        -0.20314

 Excited State   9:      Singlet-A      8.9905 eV  137.91 nm  f=0.0064  <S**2>=0.000
      30 -> 33         0.67708
      32 -> 38         0.13489

 Excited State  10:      Singlet-A      9.0650 eV  136.77 nm  f=0.0264  <S**2>=0.000
      29 -> 33         0.17677
      30 -> 33        -0.15113
      31 -> 37        -0.12573
      32 -> 36         0.26917
      32 -> 37         0.11596
      32 -> 38         0.57002

 The electronic state is 1-A.
 Alpha  occ. eigenvalues --  -14.31172 -14.29406 -10.20745 -10.20125 -10.17384
 Alpha  occ. eigenvalues --  -10.17287 -10.17151 -10.16964  -0.88899  -0.86110
 Alpha  occ. eigenvalues --   -0.78525  -0.72420  -0.70636  -0.60217  -0.59076
 Alpha  occ. eigenvalues --   -0.52502  -0.49258  -0.47514  -0.45403  -0.44162
 Alpha  occ. eigenvalues --   -0.43234  -0.41605  -0.37797  -0.37277  -0.35992
 Alpha  occ. eigenvalues --   -0.35509  -0.34386  -0.31900  -0.30053  -0.29624
 Alpha  occ. eigenvalues --   -0.23773  -0.22311
 Alpha virt. eigenvalues --    0.07064   0.11166   0.11621   0.13812   0.14101
 Alpha virt. eigenvalues --    0.14479   0.16077   0.17057   0.17158   0.18688
 Alpha virt. eigenvalues --    0.18999   0.19425   0.21454   0.21592   0.23176

 Mulliken charges:
               1
     1  N   -0.340638
     2  C    0.031874
     3  C   -0.133428
     4  C    0.073836
     5  N   -0.439961
     6  C   -0.131824
     7  C   -0.150712
     8  C   -0.142955
     9  H    0.273680
    10  H    0.198351
    11  H    0.092373
    12  H    0.027627
    13  H    0.038826
    14  H    0.030415
    15  H    0.130043
    16  H    0.114537
    17  H    0.039332
    18  H    0.034681
    19  H    0.061380
    20  H    0.064965
    21  H    0.078997
    22  H    0.048599
 Sum of Mulliken charges =  -0.00000

 Dipole moment (field-independent basis, Debye):
    X=             -2.1007    Y=             -0.9136    Z=             -1.0646  Tot=              2.5261
 Quadrupole moment (field-independent basis, Debye-Ang):
   XX=            -51.8373   YY=            -55.7514   ZZ=            -53.9958
   XY=              0.5351   XZ=              1.2971   YZ=              1.3049

 Summary of Natural Population Analysis:

                                       Natural Population
                Natural  -----------------------------------------------
    Atom  No    Charge         Core      Valence    Rydberg      Total
 -----------------------------------------------------------------------
      N    1   -0.50558      1.99944     5.49613    0.01001     7.50558
      C    2   -0.10508      1.99917     4.08809    0.01781     6.10508
      C    3   -0.49087      1.99924     4.47680    0.01483     6.49087
      C    4   -0.07615      1.99922     4.05856    0.01837     6.07615
      N    5   -0.80108      1.99951     5.78520    0.01637     7.80108
      C    6   -0.47835      1.99928     4.46553    0.01354     6.47835
      C    7   -0.47076      1.99932     4.45891    0.01253     6.47076
      C    8   -0.46480      1.99924     4.45359    0.01197     6.46480
      H    9    0.38809      0.00000     0.59642    0.01549     0.61191
      H   10    0.32460      0.00000     0.63347    0.04193     0.67540
      H   11    0.24130      0.00000     0.73673    0.02197     0.75870
      H   12    0.18716      0.00000     0.78766    0.02518     0.81284
      H   13    0.20474      0.00000     0.77209    0.02317     0.79526
      H   14    0.19492      0.00000     0.77939    0.02569     0.80508
      H   15    0.29933      0.00000     0.65718    0.04349     0.70067
      H   16    0.28623      0.00000     0.66540    0.04838     0.71377
      H   17    0.19974      0.00000     0.78213    0.01812     0.80026
      H   18    0.20199      0.00000     0.77973    0.01828     0.79801
      H   19    0.21916      0.00000     0.76989    0.01095     0.78084
      H   20    0.21365      0.00000     0.77319    0.01316     0.78635
      H   21    0.22811      0.00000     0.75341    0.01848     0.77189
      H   22    0.20364      0.00000     0.77519    0.02118     0.79636
 =======================================================================
   * Total *    0.00000     15.99442    47.54470    0.46088    64.00000

 Normal termination of Gaussian 16 at Wed Jul 17 18:30:32 2024.
