 Gaussian 16, Revision A.03,

 -------------------------------------------------------
 # opt=CalcFc B3LYP/6-31G** SCRF=(Solvent=water) scf=xqc
 -------------------------------------------------------

 ----------------------------------
 GEQHKFFSPGPGLN-OLQVQODUSA-N_conf_1
 ----------------------------------
 Symbolic Z-matrix:
 Charge =  0 Multiplicity = 1

 SCF Done:  E(RB3LYP) =  -346.597603102     A.U. after   11 cycles
 SCF Done:  E(RB3LYP) =  -346.599919010     A.U. after    9 cycles
 SCF Done:  E(RB3LYP) =  -346.599964451     A.U. after    8 cycles
 SCF Done:  E(RB3LYP) =  -346.599964643     A.U. after    6 cycles
 Optimization completed.
    -- Stationary point found.
 Normal termination of Gaussian 16 at Wed Jul 17 18:25:01 2024.

 ----------------------------------------------------------------------
 # freq B3LYP/6-31G** SCRF=(Solvent=water) volume NMR pop=NPA density=c
 urrent Geom=AllCheck Guess=Read
 ----------------------------------------------------------------------

 Structure from the checkpoint file:  "GEQHKFFSPGPGLN-OLQVQODUSA-N_conf_1_1.chk"
 ----------------------------------
 GEQHKFFSPGPGLN-OLQVQODUSA-N_conf_1
 ----------------------------------
 Charge =  0 Multiplicity = 1

 SCF Done:  E(RB3LYP) =  -346.599964643     A.U. after    1 cycles

      1  N    Isotropic =   225.2768   Anisotropy =    47.4027

      2  C    Isotropic =   141.8249   Anisotropy =    22.6551

      3  C    Isotropic =   147.3335   Anisotropy =    23.0187

      4  C    Isotropic =   144.5687   Anisotropy =    35.1121

      5  N    Isotropic =   216.4393   Anisotropy =    48.1846

      6  C    Isotropic =   151.1931   Anisotropy =    24.6004

      7  C    Isotropic =   169.5524   Anisotropy =    16.1080

      8  C    Isotropic =   159.5138   Anisotropy =    11.6817

      9  H    Isotropic =    30.6418   Anisotropy =     9.1558

     10  H    Isotropic =    31.3544   Anisotropy =    14.5997

     11  H    Isotropic =    28.7193   Anisotropy =     7.8595

     12  H    Isotropic =    30.5452   Anisotropy =     5.8081

     13  H    Isotropic =    30.1620   Anisotropy =     6.7174

     14  H    Isotropic =    28.9925   Anisotropy =     4.2826

     15  H    Isotropic =    31.0197   Anisotropy =    14.0651

     16  H    Isotropic =    31.6882   Anisotropy =    11.4841

     17  H    Isotropic =    30.1039   Anisotropy =     7.4204

     18  H    Isotropic =    30.8152   Anisotropy =     6.0327

     19  H    Isotropic =    30.1958   Anisotropy =     7.2047

     20  H    Isotropic =    30.3209   Anisotropy =    10.5726

     21  H    Isotropic =    30.2145   Anisotropy =     8.9177

     22  H    Isotropic =    30.3205   Anisotropy =     8.4258

  Exact polarizability: 100.783   1.372  96.287   0.174  -0.364  95.141
 Approx polarizability: 104.169   1.433 101.641   1.357   0.197 107.801

                      1                      2                      3
                      A                      A                      A
 Frequencies --    142.3772               155.9832               225.5171
 Red. masses --      2.9246                 2.6914                 1.0633
 Frc consts  --      0.0349                 0.0386                 0.0319
 IR Inten    --      2.1469                 0.9252                76.8404

                      4                      5                      6
                      A                      A                      A
 Frequencies --    264.2532               272.6520               344.2338
 Red. masses --      1.4714                 1.5560                 2.4275
 Frc consts  --      0.0605                 0.0682                 0.1695
 IR Inten    --     22.8160                35.6767                27.3369

                      7                      8                      9
                      A                      A                      A
 Frequencies --    367.4054               384.1707               453.9395
 Red. masses --      2.4747                 2.6123                 1.7838
 Frc consts  --      0.1968                 0.2272                 0.2166
 IR Inten    --      3.7783                 3.0176                 2.2382

                     10                     11                     12
                      A                      A                      A
 Frequencies --    490.5231               497.5347               664.1475
 Red. masses --      2.6896                 2.4748                 2.3027
 Frc consts  --      0.3813                 0.3609                 0.5984
 IR Inten    --     10.0876                 0.8982                 7.7916

                     13                     14                     15
                      A                      A                      A
 Frequencies --    768.1673               817.7587               862.5337
 Red. masses --      2.7467                 2.2296                 1.6572
 Frc consts  --      0.9549                 0.8785                 0.7264
 IR Inten    --      1.7411                13.1323                 4.9681

                     16                     17                     18
                      A                      A                      A
 Frequencies --    872.2839               885.0683               928.1399
 Red. masses --      1.8080                 1.7836                 1.6675
 Frc consts  --      0.8105                 0.8232                 0.8464
 IR Inten    --     85.4347                24.6190               113.1152

                     19                     20                     21
                      A                      A                      A
 Frequencies --    937.7177               976.3015              1016.8958
 Red. masses --      1.8285                 1.7352                 1.8008
 Frc consts  --      0.9473                 0.9745                 1.0972
 IR Inten    --    236.9524                20.5544                 1.7513

                     22                     23                     24
                      A                      A                      A
 Frequencies --   1036.8853              1043.3239              1077.8290
 Red. masses --      1.7422                 1.6026                 1.8338
 Frc consts  --      1.1036                 1.0278                 1.2552
 IR Inten    --      8.2689                38.8235                 1.9428

                     25                     26                     27
                      A                      A                      A
 Frequencies --   1105.3580              1121.6886              1137.8330
 Red. masses --      1.3913                 1.1849                 2.1735
 Frc consts  --      1.0015                 0.8784                 1.6580
 IR Inten    --      9.3291                12.3632                 5.5972

                     28                     29                     30
                      A                      A                      A
 Frequencies --   1183.7415              1223.2325              1248.0439
 Red. masses --      1.3023                 1.8129                 1.4751
 Frc consts  --      1.0751                 1.5982                 1.3537
 IR Inten    --      5.5555                13.5001                 8.7218

                     31                     32                     33
                      A                      A                      A
 Frequencies --   1283.8951              1298.1373              1340.2401
 Red. masses --      1.3078                 1.3712                 1.3615
 Frc consts  --      1.2701                 1.3614                 1.4409
 IR Inten    --     11.8160                 6.2678                 5.3503

                     34                     35                     36
                      A                      A                      A
 Frequencies --   1347.6184              1373.1565              1381.2470
 Red. masses --      1.4134                 1.3809                 1.3497
 Frc consts  --      1.5123                 1.5341                 1.5171
 IR Inten    --      6.2435                 3.7508                 9.4925

                     37                     38                     39
                      A                      A                      A
 Frequencies --   1384.9491              1388.2389              1427.6114
 Red. masses --      1.3826                 1.5271                 1.3455
 Frc consts  --      1.5625                 1.7340                 1.6157
 IR Inten    --     13.9432                 0.3359                 8.4500

                     40                     41                     42
                      A                      A                      A
 Frequencies --   1433.4505              1483.8544              1487.3597
 Red. masses --      1.4389                 1.0971                 1.0965
 Frc consts  --      1.7420                 1.4232                 1.4291
 IR Inten    --      3.9239                 3.2621                 0.4286

                     43                     44                     45
                      A                      A                      A
 Frequencies --   1499.0166              1509.3666              1655.3465
 Red. masses --      1.0893                 1.1006                 1.0902
 Frc consts  --      1.4421                 1.4772                 1.7601
 IR Inten    --      8.2834                 3.8714                34.5246

                     46                     47                     48
                      A                      A                      A
 Frequencies --   1657.1505              3001.4119              3005.2511
 Red. masses --      1.0897                 1.0782                 1.0649
 Frc consts  --      1.7632                 5.7225                 5.6667
 IR Inten    --     44.3176                 8.4097                19.6553

                     49                     50                     51
                      A                      A                      A
 Frequencies --   3013.2782              3022.4943              3027.8748
 Red. masses --      1.0697                 1.0676                 1.0714
 Frc consts  --      5.7225                 5.7461                 5.7873
 IR Inten    --    112.8116                53.8078                13.6650

                     52                     53                     54
                      A                      A                      A
 Frequencies --   3040.5625              3059.3166              3067.3182
 Red. masses --      1.0767                 1.0987                 1.0978
 Frc consts  --      5.8648                 6.0590                 6.0852
 IR Inten    --    138.1674                93.5135                97.7445

                     55                     56                     57
                      A                      A                      A
 Frequencies --   3070.3001              3084.0197              3459.0990
 Red. masses --      1.0968                 1.1018                 1.0504
 Frc consts  --      6.0917                 6.1743                 7.4050
 IR Inten    --     75.1260                81.3175                 2.8948

                     58                     59                     60
                      A                      A                      A
 Frequencies --   3478.3700              3537.7375              3555.6317
 Red. masses --      1.0504                 1.0910                 1.0909
 Frc consts  --      7.4878                 8.0451                 8.1260
 IR Inten    --      1.8174                 0.7058                 0.2906

 - Thermochemistry -
 -------------------
 Temperature   298.150 Kelvin.  Pressure   1.00000 Atm.
 Atom     1 has atomic number  7 and mass  14.00307

 Molecular mass:   114.11570 amu.
 Principal axes and moments of inertia in atomic units:
                           1         2         3
     Eigenvalues --   626.948081060.923481396.84315
           X            0.99996   0.00875  -0.00160
           Y           -0.00876   0.99995  -0.00569
           Z            0.00155   0.00570   0.99998
 This molecule is an asymmetric top.
 Rotational symmetry number  1.
 Warning -- assumption of classical behavior for rotation
           may cause significant error
 Rotational temperatures (Kelvin)      0.13815     0.08164     0.06201
 Rotational constants (GHZ):           2.87861     1.70110     1.29201
 Zero-point vibrational energy     537594.9 (Joules/Mol)
                                  128.48826 (Kcal/Mol)
 Warning -- explicit consideration of  11 degrees of freedom as
           vibrations may cause significant error
 Vibrational temperatures:    204.85   224.43   324.47   380.20   392.29
          (Kelvin)            495.28   528.61   552.74   653.12   705.75
                              715.84   955.56  1105.22  1176.57  1240.99
                             1255.02  1273.42  1335.39  1349.17  1404.68
                             1463.09  1491.85  1501.11  1550.76  1590.36
                             1613.86  1637.09  1703.14  1759.96  1795.66
                             1847.24  1867.73  1928.31  1938.92  1975.67
                             1987.31  1992.63  1997.37  2054.01  2062.42
                             2134.94  2139.98  2156.75  2171.64  2381.67
                             2384.27  4318.36  4323.89  4335.44  4348.70
                             4356.44  4374.69  4401.67  4413.19  4417.48
                             4437.22  4976.87  5004.60  5090.02  5115.76

 Zero-point correction=                           0.204759 (Hartree/Particle)
 Thermal correction to Energy=                    0.213035
 Thermal correction to Enthalpy=                  0.213980
 Thermal correction to Gibbs Free Energy=         0.172723
 Sum of electronic and zero-point Energies=           -346.395206
 Sum of electronic and thermal Energies=              -346.386929
 Sum of electronic and thermal Enthalpies=            -346.385985
 Sum of electronic and thermal Free Energies=         -346.427242

                     E (Thermal)             CV                S
                      KCal/Mol        Cal/Mol-Kelvin    Cal/Mol-Kelvin
 Total                  133.682             32.990             86.832
 Electronic               0.000              0.000              0.000
 Translational            0.889              2.981             40.112
 Rotational               0.889              2.981             28.321
 Vibrational            131.904             27.028             18.400
 Vibration     1          0.616              1.911              2.772
 Vibration     2          0.620              1.896              2.598
 Vibration     3          0.650              1.802              1.914
 Vibration     4          0.671              1.738              1.634
 Vibration     5          0.676              1.724              1.579
 Vibration     6          0.723              1.587              1.192
 Vibration     7          0.740              1.539              1.091
 Vibration     8          0.753              1.504              1.023
 Vibration     9          0.812              1.352              0.784
 Vibration    10          0.846              1.271              0.682
 Vibration    11          0.853              1.255              0.664

 Optimization completed.
    -- Stationary point found.
 Normal termination of Gaussian 16 at Wed Jul 17 18:29:56 2024.
 Gaussian 16:  ES64L-G16RevA.03 25-Dec-2016

 ----------------------------------------------------------------------
 # TD(NStates=10, Root=1) B3LYP/6-31G** SCRF=(Solvent=water) volume pop
 =NPA density=current Geom=AllCheck Guess=Read
 ----------------------------------------------------------------------

 Structure from the checkpoint file:  "GEQHKFFSPGPGLN-OLQVQODUSA-N_conf_1_2.chk"
 ----------------------------------
 GEQHKFFSPGPGLN-OLQVQODUSA-N_conf_1
 ----------------------------------
 Charge =  0 Multiplicity = 1

                         Standard orientation:
 ---------------------------------------------------------------------
 Center     Atomic      Atomic             Coordinates (Angstroms)
 Number     Number       Type             X           Y           Z
 ---------------------------------------------------------------------
      1          7           0       -1.852735   -1.137941   -0.824905
      2          6           0       -1.261070   -0.671346    0.445748
      3          6           0        0.229830   -1.035295    0.636943
      4          6           0        1.170280   -0.243175   -0.283571
      5          7           0        2.558346   -0.681866   -0.060965
      6          6           0        0.940423    1.269935   -0.105577
      7          6           0       -0.530660    1.659206   -0.321457
      8          6           0       -1.462218    0.848146    0.593833
      9          1           0       -1.350533   -0.728716   -1.610821
     10          1           0       -1.698561   -2.141905   -0.909252
     11          1           0       -1.830420   -1.168614    1.241505
     12          1           0        0.512595   -0.831895    1.680996
     13          1           0        0.377331   -2.110148    0.475575
     14          1           0        0.930154   -0.501393   -1.325816
     15          1           0        3.174599   -0.144495   -0.670323
     16          1           0        2.832226   -0.419768    0.886677
     17          1           0        1.590161    1.825738   -0.793758
     18          1           0        1.246494    1.549221    0.913941
     19          1           0       -0.801676    1.496851   -1.374020
     20          1           0       -0.669696    2.731026   -0.138512
     21          1           0       -2.510711    1.093739    0.392187
     22          1           0       -1.260761    1.124178    1.637196
 ---------------------------------------------------------------------

 SCF Done:  E(RB3LYP) =  -346.599964643     A.U. after    1 cycles

 Excitation energies and oscillator strengths:

 Excited State   1:      Singlet-A      7.2154 eV  171.83 nm  f=0.0261  <S**2>=0.000
      31 -> 33         0.60646
      31 -> 34        -0.10998
      32 -> 33        -0.32847
 This state for optimization and/or second-order correction.
 Total Energy, E(TD-HF/TD-DFT) =  -346.334805356
 Copying the excited state density for this state as the 1-particle RhoCI density.

 Excited State   2:      Singlet-A      7.4563 eV  166.28 nm  f=0.0119  <S**2>=0.000
      31 -> 33         0.27552
      31 -> 34         0.16558
      32 -> 33         0.49952
      32 -> 34         0.34760
      32 -> 35         0.13317

 Excited State   3:      Singlet-A      7.6736 eV  161.57 nm  f=0.0167  <S**2>=0.000
      31 -> 33        -0.18728
      31 -> 34         0.24821
      32 -> 33        -0.36187
      32 -> 34         0.50468

 Excited State   4:      Singlet-A      8.0063 eV  154.86 nm  f=0.0213  <S**2>=0.000
      31 -> 34        -0.27673
      31 -> 35         0.51514
      32 -> 34         0.14757
      32 -> 35        -0.34550

 Excited State   5:      Singlet-A      8.0973 eV  153.12 nm  f=0.0299  <S**2>=0.000
      31 -> 34        -0.10035
      31 -> 35         0.36366
      32 -> 34        -0.13261
      32 -> 35         0.56432

 Excited State   6:      Singlet-A      8.2350 eV  150.56 nm  f=0.0501  <S**2>=0.000
      31 -> 33         0.10159
      31 -> 34         0.55136
      31 -> 35         0.27903
      32 -> 34        -0.27332
      32 -> 35        -0.14607

 Excited State   7:      Singlet-A      8.8879 eV  139.50 nm  f=0.0101  <S**2>=0.000
      31 -> 36         0.56733
      31 -> 39         0.12422
      32 -> 36        -0.34790

 Excited State   8:      Singlet-A      9.0213 eV  137.43 nm  f=0.0256  <S**2>=0.000
      31 -> 36         0.34812
      32 -> 36         0.58068
      32 -> 38        -0.11567

 Excited State   9:      Singlet-A      9.0788 eV  136.56 nm  f=0.0010  <S**2>=0.000
      30 -> 33         0.67367
      31 -> 37        -0.15476
      32 -> 37         0.12108

 Excited State  10:      Singlet-A      9.1225 eV  135.91 nm  f=0.0270  <S**2>=0.000
      30 -> 33         0.19897
      31 -> 37         0.57481
      32 -> 37        -0.31506

 The electronic state is 1-A.
 Alpha  occ. eigenvalues --  -14.30847 -14.30808 -10.20666 -10.20554 -10.17733
 Alpha  occ. eigenvalues --  -10.17389 -10.17292 -10.17139  -0.88835  -0.87144
 Alpha  occ. eigenvalues --   -0.78960  -0.72291  -0.70921  -0.60443  -0.59290
 Alpha  occ. eigenvalues --   -0.54189  -0.49317  -0.47724  -0.45858  -0.43265
 Alpha  occ. eigenvalues --   -0.42828  -0.41633  -0.38796  -0.38070  -0.36465
 Alpha  occ. eigenvalues --   -0.35975  -0.33584  -0.31886  -0.31283  -0.29677
 Alpha  occ. eigenvalues --   -0.23534  -0.23436
 Alpha virt. eigenvalues --    0.07398   0.09286   0.09793   0.12887   0.13834
 Alpha virt. eigenvalues --    0.15852   0.16205   0.16955   0.17734   0.17938
 Alpha virt. eigenvalues --    0.18983   0.19569   0.20392   0.21275   0.22231

 Mulliken charges:
               1
     1  N   -0.106776
     2  C   -0.005729
     3  C   -0.149027
     4  C    0.099383
     5  N   -0.641999
     6  C   -0.164215
     7  C   -0.128204
     8  C   -0.159769
     9  H    0.047431
    10  H    0.068003
    11  H    0.113523
    12  H    0.121624
    13  H    0.060047
    14  H   -0.002686
    15  H    0.250630
    16  H    0.242931
    17  H    0.063484
    18  H    0.076417
    19  H   -0.002859
    20  H    0.050694
    21  H    0.080303
    22  H    0.086795
 Sum of Mulliken charges =  -0.00000

 Dipole moment (field-independent basis, Debye):
    X=             -1.1385    Y=              0.2062    Z=              1.8954  Tot=              2.2206
 Quadrupole moment (field-independent basis, Debye-Ang):
   XX=            -50.0520   YY=            -58.0973   ZZ=            -52.7523
   XY=              6.3280   XZ=              0.8345   YZ=             -0.1656

 Summary of Natural Population Analysis:

                                       Natural Population
                Natural  -----------------------------------------------
    Atom  No    Charge         Core      Valence    Rydberg      Total
 -----------------------------------------------------------------------
      N    1   -0.37136      1.99931     5.35365    0.01840     7.37136
      C    2   -0.13265      1.99917     4.11594    0.01753     6.13265
      C    3   -0.46436      1.99917     4.45073    0.01446     6.46436
      C    4   -0.06626      1.99918     4.04837    0.01871     6.06626
      N    5   -0.92691      1.99966     5.91117    0.01609     7.92691
      C    6   -0.48757      1.99928     4.47485    0.01344     6.48757
      C    7   -0.47667      1.99932     4.46464    0.01270     6.47667
      C    8   -0.47827      1.99928     4.46583    0.01315     6.47827
      H    9    0.21397      0.00000     0.71367    0.07236     0.78603
      H   10    0.23793      0.00000     0.69229    0.06978     0.76207
      H   11    0.25649      0.00000     0.72724    0.01627     0.74351
      H   12    0.25671      0.00000     0.73749    0.00580     0.74329
      H   13    0.21348      0.00000     0.76317    0.02335     0.78652
      H   14    0.16614      0.00000     0.79748    0.03638     0.83386
      H   15    0.39073      0.00000     0.60616    0.00312     0.60927
      H   16    0.37936      0.00000     0.61744    0.00320     0.62064
      H   17    0.22091      0.00000     0.77184    0.00725     0.77909
      H   18    0.22345      0.00000     0.77152    0.00504     0.77655
      H   19    0.16508      0.00000     0.80087    0.03405     0.83492
      H   20    0.21590      0.00000     0.77339    0.01070     0.78410
      H   21    0.23389      0.00000     0.75567    0.01043     0.76611
      H   22    0.22999      0.00000     0.76005    0.00996     0.77001
 =======================================================================
   * Total *    0.00000     15.99437    47.57344    0.43218    64.00000

 Normal termination of Gaussian 16 at Wed Jul 17 18:36:54 2024.
