 Gaussian 16, Revision A.03,

 -------------------------------------------------------
 # opt=CalcFc B3LYP/6-31G** SCRF=(Solvent=water) scf=xqc
 -------------------------------------------------------

 ----------------------------------
 KQSABULTKYLFEV-UHFFFAOYSA-N_conf_0
 ----------------------------------
 Symbolic Z-matrix:
 Charge =  0 Multiplicity = 1

 SCF Done:  E(RB3LYP) =  -496.617056812     A.U. after   13 cycles
 SCF Done:  E(RB3LYP) =  -496.626000556     A.U. after   13 cycles
 SCF Done:  E(RB3LYP) =  -496.627019452     A.U. after   12 cycles
 SCF Done:  E(RB3LYP) =  -496.629371482     A.U. after   11 cycles
 SCF Done:  E(RB3LYP) =  -496.629773468     A.U. after   10 cycles
 SCF Done:  E(RB3LYP) =  -496.629989866     A.U. after   10 cycles
 SCF Done:  E(RB3LYP) =  -496.630025704     A.U. after    9 cycles
 SCF Done:  E(RB3LYP) =  -496.630032535     A.U. after    9 cycles
 SCF Done:  E(RB3LYP) =  -496.630033716     A.U. after    8 cycles
 SCF Done:  E(RB3LYP) =  -496.630033749     A.U. after    6 cycles
 Optimization completed.
    -- Stationary point found.
 Normal termination of Gaussian 16 at Tue Jul  9 19:00:19 2024.

 ----------------------------------------------------------------------
 # freq B3LYP/6-31G** SCRF=(Solvent=water) volume NMR pop=NPA density=c
 urrent Geom=AllCheck Guess=Read
 ----------------------------------------------------------------------

 Structure from the checkpoint file:  "KQSABULTKYLFEV-UHFFFAOYSA-N_conf_0_1.chk"
 ----------------------------------
 KQSABULTKYLFEV-UHFFFAOYSA-N_conf_0
 ----------------------------------
 Charge =  0 Multiplicity = 1

 SCF Done:  E(RB3LYP) =  -496.630033749     A.U. after    1 cycles

      1  N    Isotropic =   200.9620   Anisotropy =    56.2969

      2  C    Isotropic =    52.5664   Anisotropy =   151.8156

      3  C    Isotropic =    86.6729   Anisotropy =   122.6281

      4  C    Isotropic =    71.7068   Anisotropy =   160.7844

      5  C    Isotropic =    84.8534   Anisotropy =   146.6343

      6  C    Isotropic =    71.9166   Anisotropy =   175.3223

      7  C    Isotropic =    52.5653   Anisotropy =   151.8150

      8  N    Isotropic =   200.9594   Anisotropy =    56.2917

      9  C    Isotropic =    86.6654   Anisotropy =   122.6329

     10  C    Isotropic =    71.7100   Anisotropy =   160.7795

     11  C    Isotropic =    84.8498   Anisotropy =   146.6432

     12  C    Isotropic =    71.9239   Anisotropy =   175.3121

     13  H    Isotropic =    28.3752   Anisotropy =    12.6248

     14  H    Isotropic =    27.9318   Anisotropy =    12.0448

     15  H    Isotropic =    25.0135   Anisotropy =     6.0990

     16  H    Isotropic =    24.3869   Anisotropy =     4.8921

     17  H    Isotropic =    24.4356   Anisotropy =     8.8073

     18  H    Isotropic =    27.9334   Anisotropy =    12.0433

     19  H    Isotropic =    28.3758   Anisotropy =    12.6239

     20  H    Isotropic =    25.0132   Anisotropy =     6.0988

     21  H    Isotropic =    24.3870   Anisotropy =     4.8922

     22  H    Isotropic =    24.4356   Anisotropy =     8.8080

  Exact polarizability: 232.939   7.347 213.781  -0.615  -0.871  49.852
 Approx polarizability: 278.674   5.123 273.079  -3.268   0.873  64.419

                      1                      2                      3
                      A                      A                      A
 Frequencies --     98.3737               171.6328               209.4644
 Red. masses --      4.2300                 3.7141                 3.5466
 Frc consts  --      0.0241                 0.0645                 0.0917
 IR Inten    --      4.4204                 5.7161                 0.0000

                      4                      5                      6
                      A                      A                      A
 Frequencies --    261.0283               287.3740               317.8991
 Red. masses --      3.3742                 3.5484                 1.2507
 Frc consts  --      0.1355                 0.1727                 0.0745
 IR Inten    --     10.6642                21.4614                 0.0003

                      7                      8                      9
                      A                      A                      A
 Frequencies --    342.2558               369.3162               466.4199
 Red. masses --      1.1154                 2.4673                 5.7517
 Frc consts  --      0.0770                 0.1983                 0.7372
 IR Inten    --    117.4399                 0.0000                 0.0000

                     10                     11                     12
                      A                      A                      A
 Frequencies --    475.2178               513.6521               515.8886
 Red. masses --      3.6217                 3.2664                 5.3518
 Frc consts  --      0.4819                 0.5078                 0.8392
 IR Inten    --      0.0000                 0.0001                 0.0000

                     13                     14                     15
                      A                      A                      A
 Frequencies --    519.0462               546.9411               600.3158
 Red. masses --      3.3276                 6.2878                 3.4079
 Frc consts  --      0.5282                 1.1082                 0.7236
 IR Inten    --      5.5937                 4.8175                15.6355

                     16                     17                     18
                      A                      A                      A
 Frequencies --    626.9767               654.0053               680.0523
 Red. masses --      1.6343                 4.2716                 1.5349
 Frc consts  --      0.3785                 1.0765                 0.4182
 IR Inten    --    781.5907                 0.0037                 0.0006

                     19                     20                     21
                      A                      A                      A
 Frequencies --    704.8569               729.3484               779.7462
 Red. masses --      2.8829                 1.4293                 1.2988
 Frc consts  --      0.8439                 0.4480                 0.4653
 IR Inten    --    387.5178                 0.0006               129.0742

                     22                     23                     24
                      A                      A                      A
 Frequencies --    795.0787               817.7326               867.7833
 Red. masses --      4.8321                 4.3883                 1.3977
 Frc consts  --      1.7997                 1.7289                 0.6201
 IR Inten    --     20.8845                 0.0002                 0.0002

                     25                     26                     27
                      A                      A                      A
 Frequencies --    871.2559               875.9690               949.9462
 Red. masses --      1.5146                 3.9035                 3.9414
 Frc consts  --      0.6774                 1.7647                 2.0955
 IR Inten    --     31.7456                 0.0002                25.2538

                     28                     29                     30
                      A                      A                      A
 Frequencies --    956.6822               962.7754              1066.8524
 Red. masses --      1.2512                 1.2657                 1.8524
 Frc consts  --      0.6747                 0.6912                 1.2422
 IR Inten    --      1.1018                 0.0000                 0.0000

                     31                     32                     33
                      A                      A                      A
 Frequencies --   1098.5617              1132.5211              1148.4905
 Red. masses --      2.2883                 1.4809                 1.4409
 Frc consts  --      1.6271                 1.1191                 1.1198
 IR Inten    --     22.3009                31.4262                 0.0000

                     34                     35                     36
                      A                      A                      A
 Frequencies --   1192.6507              1203.1874              1235.4676
 Red. masses --      1.1291                 1.2449                 2.2680
 Frc consts  --      0.9463                 1.0618                 2.0396
 IR Inten    --      0.0000                10.5821                 0.0000

                     37                     38                     39
                      A                      A                      A
 Frequencies --   1247.8916              1307.0821              1323.5395
 Red. masses --      2.1263                 2.4962                 2.2255
 Frc consts  --      1.9508                 2.5126                 2.2969
 IR Inten    --     17.1265                 0.0000               113.7804

                     40                     41                     42
                      A                      A                      A
 Frequencies --   1402.2760              1405.7354              1461.3434
 Red. masses --      2.6703                 8.2222                 2.6327
 Frc consts  --      3.0936                 9.5729                 3.3125
 IR Inten    --     29.8899                 0.0000               265.3976

                     43                     44                     45
                      A                      A                      A
 Frequencies --   1477.7026              1504.8111              1566.7591
 Red. masses --      2.3765                 2.4286                 3.8508
 Frc consts  --      3.0575                 3.2402                 5.5693
 IR Inten    --      0.0001                 0.0000               216.3466

                     46                     47                     48
                      A                      A                      A
 Frequencies --   1627.5706              1637.6334              1661.6650
 Red. masses --      3.9961                 3.1229                 1.9406
 Frc consts  --      6.2368                 4.9344                 3.1571
 IR Inten    --      0.0000                34.5679                 0.0029

                     49                     50                     51
                      A                      A                      A
 Frequencies --   1664.8185              1672.2459              3173.1328
 Red. masses --      1.3092                 2.3475                 1.0875
 Frc consts  --      2.1379                 3.8678                 6.4514
 IR Inten    --    352.7375                 0.0001                53.7744

                     52                     53                     54
                      A                      A                      A
 Frequencies --   3173.6994              3190.2615              3190.4494
 Red. masses --      1.0879                 1.0905                 1.0911
 Frc consts  --      6.4562                 6.5390                 6.5437
 IR Inten    --      0.0027                 0.0030                63.0931

                     55                     56                     57
                      A                      A                      A
 Frequencies --   3211.6042              3212.4453              3555.2736
 Red. masses --      1.0942                 1.0938                 1.0490
 Frc consts  --      6.6492                 6.6506                 7.8120
 IR Inten    --     65.9304                 0.0188                26.4284

                     58                     59                     60
                      A                      A                      A
 Frequencies --   3555.3530              3650.8723              3650.9788
 Red. masses --      1.0490                 1.0970                 1.0970
 Frc consts  --      7.8124                 8.6146                 8.6151
 IR Inten    --     11.2181                25.2028                21.4538

 - Thermochemistry -
 -------------------
 Temperature   298.150 Kelvin.  Pressure   1.00000 Atm.
 Atom     1 has atomic number  7 and mass  14.00307

 Molecular mass:   158.08440 amu.
 Principal axes and moments of inertia in atomic units:
                           1         2         3
     Eigenvalues --  1166.811761978.913373141.03251
           X            0.99990  -0.01256   0.00610
           Y            0.01260   0.99990  -0.00572
           Z           -0.00602   0.00580   0.99997
 This molecule is an asymmetric top.
 Rotational symmetry number  1.
 Warning -- assumption of classical behavior for rotation
           may cause significant error
 Rotational temperatures (Kelvin)      0.07423     0.04377     0.02757
 Rotational constants (GHZ):           1.54673     0.91199     0.57457
 Zero-point vibrational energy     475933.8 (Joules/Mol)
                                  113.75090 (Kcal/Mol)
 Warning -- explicit consideration of  15 degrees of freedom as
           vibrations may cause significant error
 Vibrational temperatures:    141.54   246.94   301.37   375.56   413.47
          (Kelvin)            457.39   492.43   531.36   671.07   683.73
                              739.03   742.25   746.79   786.93   863.72
                              902.08   940.97   978.44  1014.13  1049.37
                             1121.88  1143.94  1176.53  1248.55  1253.54
                             1260.32  1366.76  1376.45  1385.22  1534.96
                             1580.59  1629.45  1652.42  1715.96  1731.12
                             1777.56  1795.44  1880.60  1904.28  2017.56
                             2022.54  2102.55  2126.08  2165.09  2254.22
                             2341.71  2356.19  2390.77  2395.30  2405.99
                             4565.43  4566.25  4590.07  4590.35  4620.78
                             4621.99  5115.25  5115.36  5252.79  5252.94

 Zero-point correction=                           0.181274 (Hartree/Particle)
 Thermal correction to Energy=                    0.190881
 Thermal correction to Enthalpy=                  0.191825
 Thermal correction to Gibbs Free Energy=         0.147097
 Sum of electronic and zero-point Energies=           -496.448760
 Sum of electronic and thermal Energies=              -496.439153
 Sum of electronic and thermal Enthalpies=            -496.438209
 Sum of electronic and thermal Free Energies=         -496.482937

                     E (Thermal)             CV                S
                      KCal/Mol        Cal/Mol-Kelvin    Cal/Mol-Kelvin
 Total                  119.780             40.360             94.139
 Electronic               0.000              0.000              0.000
 Translational            0.889              2.981             41.083
 Rotational               0.889              2.981             30.362
 Vibrational            118.002             34.399             22.693
 Vibration     1          0.604              1.950              3.486
 Vibration     2          0.626              1.877              2.418
 Vibration     3          0.642              1.826              2.048
 Vibration     4          0.669              1.744              1.655
 Vibration     5          0.685              1.697              1.489
 Vibration     6          0.704              1.639              1.321
 Vibration     7          0.721              1.591              1.202
 Vibration     8          0.742              1.535              1.083
 Vibration     9          0.824              1.325              0.748
 Vibration    10          0.832              1.305              0.723
 Vibration    11          0.869              1.220              0.625
 Vibration    12          0.871              1.215              0.620
 Vibration    13          0.874              1.208              0.612
 Vibration    14          0.902              1.146              0.551
 Vibration    15          0.958              1.031              0.449

 Optimization completed.
    -- Stationary point found.
 Normal termination of Gaussian 16 at Tue Jul  9 19:28:51 2024.
 Gaussian 16:  EM64L-G16RevA.03 25-Dec-2016

 ----------------------------------------------------------------------
 # TD(NStates=10, Root=1) B3LYP/6-31G** SCRF=(Solvent=water) volume pop
 =NPA density=current Geom=AllCheck Guess=Read
 ----------------------------------------------------------------------

 Structure from the checkpoint file:  "KQSABULTKYLFEV-UHFFFAOYSA-N_conf_0_2.chk"
 ----------------------------------
 KQSABULTKYLFEV-UHFFFAOYSA-N_conf_0
 ----------------------------------
 Charge =  0 Multiplicity = 1

                         Standard orientation:
 ---------------------------------------------------------------------
 Center     Atomic      Atomic             Coordinates (Angstroms)
 Number     Number       Type             X           Y           Z
 ---------------------------------------------------------------------
      1          7           0       -2.771019    1.363704    0.066630
      2          6           0       -1.869203    0.295882    0.012204
      3          6           0       -2.325372   -1.014830    0.018734
      4          6           0       -1.422614   -2.095870   -0.001961
      5          6           0       -0.061673   -1.881474   -0.029303
      6          6           0        0.453179   -0.556632   -0.010858
      7          6           0        1.869199   -0.295876   -0.012072
      8          7           0        2.770962   -1.363794   -0.066179
      9          6           0        2.325390    1.014817   -0.018814
     10          6           0        1.422632    2.095870    0.001622
     11          6           0        0.061694    1.881486    0.029047
     12          6           0       -0.453179    0.556648    0.010828
     13          1           0       -3.722416    1.097005   -0.155699
     14          1           0       -2.503021    2.173784   -0.478159
     15          1           0       -3.395501   -1.205457    0.019505
     16          1           0       -1.812764   -3.109483   -0.018575
     17          1           0        0.610634   -2.729656   -0.091497
     18          1           0        2.503042   -2.173357    0.479433
     19          1           0        3.722390   -1.096957    0.155870
     20          1           0        3.395519    1.205436   -0.019535
     21          1           0        1.812786    3.109485    0.017997
     22          1           0       -0.610587    2.729711    0.090950
 ---------------------------------------------------------------------

 SCF Done:  E(RB3LYP) =  -496.630033749     A.U. after    2 cycles

 Excitation energies and oscillator strengths:

 Excited State   1:      Singlet-A      3.8082 eV  325.57 nm  f=0.3062  <S**2>=0.000
      42 -> 43         0.69500
 This state for optimization and/or second-order correction.
 Total Energy, E(TD-HF/TD-DFT) =  -496.490084645
 Copying the excited state density for this state as the 1-particle RhoCI density.

 Excited State   2:      Singlet-A      4.0767 eV  304.13 nm  f=0.1857  <S**2>=0.000
      40 -> 43        -0.23746
      42 -> 44         0.65869

 Excited State   3:      Singlet-A      4.7177 eV  262.80 nm  f=0.0000  <S**2>=0.000
      41 -> 43         0.68469
      42 -> 45         0.14849

 Excited State   4:      Singlet-A      5.1687 eV  239.87 nm  f=0.0000  <S**2>=0.000
      40 -> 45         0.10471
      41 -> 44         0.68921

 Excited State   5:      Singlet-A      5.3670 eV  231.01 nm  f=1.0457  <S**2>=0.000
      40 -> 43         0.65737
      42 -> 44         0.23517

 Excited State   6:      Singlet-A      5.8159 eV  213.18 nm  f=0.0000  <S**2>=0.000
      38 -> 43         0.10830
      41 -> 43        -0.14031
      42 -> 45         0.67952

 Excited State   7:      Singlet-A      6.0389 eV  205.31 nm  f=0.3239  <S**2>=0.000
      39 -> 43        -0.10619
      40 -> 44         0.67918
      41 -> 45        -0.12630

 Excited State   8:      Singlet-A      6.4799 eV  191.34 nm  f=0.0088  <S**2>=0.000
      42 -> 46         0.69225

 Excited State   9:      Singlet-A      6.5108 eV  190.43 nm  f=0.0000  <S**2>=0.000
      42 -> 47         0.68568

 Excited State  10:      Singlet-A      6.7130 eV  184.69 nm  f=0.4180  <S**2>=0.000
      39 -> 43         0.51485
      39 -> 44         0.13949
      41 -> 45        -0.45607

 The electronic state is 1-A.
 Alpha  occ. eigenvalues --  -14.33762 -14.33762 -10.22870 -10.22869 -10.19560
 Alpha  occ. eigenvalues --  -10.19519 -10.18665 -10.18665 -10.17989 -10.17988
 Alpha  occ. eigenvalues --  -10.17983 -10.17982  -0.92079  -0.91367  -0.84323
 Alpha  occ. eigenvalues --   -0.80828  -0.74043  -0.73695  -0.70274  -0.62037
 Alpha  occ. eigenvalues --   -0.61741  -0.57989  -0.52906  -0.52637  -0.50561
 Alpha  occ. eigenvalues --   -0.48359  -0.47600  -0.45629  -0.43940  -0.41635
 Alpha  occ. eigenvalues --   -0.40794  -0.39996  -0.38931  -0.37791  -0.36174
 Alpha  occ. eigenvalues --   -0.33837  -0.32992  -0.30867  -0.30035  -0.24230
 Alpha  occ. eigenvalues --   -0.22272  -0.18325
 Alpha virt. eigenvalues --   -0.02546  -0.00688   0.05113   0.08698   0.08725
 Alpha virt. eigenvalues --    0.10747   0.11489   0.12008   0.14539   0.16037
 Alpha virt. eigenvalues --    0.16978   0.19531   0.20509   0.21151   0.22444

 Mulliken charges:
               1
     1  N   -0.647151
     2  C    0.168284
     3  C   -0.115198
     4  C   -0.136268
     5  C   -0.179681
     6  C    0.083002
     7  C    0.168215
     8  N   -0.647190
     9  C   -0.115221
    10  C   -0.136287
    11  C   -0.179731
    12  C    0.083036
    13  H    0.282852
    14  H    0.277393
    15  H    0.095180
    16  H    0.086556
    17  H    0.085203
    18  H    0.277344
    19  H    0.282813
    20  H    0.095152
    21  H    0.086537
    22  H    0.085159
 Sum of Mulliken charges =  -0.00000

 Dipole moment (field-independent basis, Debye):
    X=             -0.0034    Y=              0.0010    Z=              0.0008  Tot=              0.0037
 Quadrupole moment (field-independent basis, Debye-Ang):
   XX=            -47.4583   YY=            -62.1054   ZZ=            -75.4511
   XY=             -6.4228   XZ=              7.2239   YZ=             -4.7211

 Summary of Natural Population Analysis:

                                       Natural Population
                Natural  -----------------------------------------------
    Atom  No    Charge         Core      Valence    Rydberg      Total
 -----------------------------------------------------------------------
      N    1   -0.80809      1.99951     5.79555    0.01303     7.80809
      C    2    0.14342      1.99895     3.83910    0.01853     5.85658
      C    3   -0.25409      1.99905     4.24157    0.01347     6.25409
      C    4   -0.27436      1.99913     4.25865    0.01658     6.27436
      C    5   -0.27248      1.99907     4.25643    0.01698     6.27248
      C    6   -0.07749      1.99900     4.06415    0.01435     6.07749
      C    7    0.14335      1.99895     3.83917    0.01853     5.85665
      N    8   -0.80821      1.99951     5.79567    0.01303     7.80821
      C    9   -0.25413      1.99905     4.24161    0.01347     6.25413
      C   10   -0.27435      1.99913     4.25865    0.01658     6.27435
      C   11   -0.27258      1.99907     4.25654    0.01698     6.27258
      C   12   -0.07747      1.99900     4.06413    0.01434     6.07747
      H   13    0.41680      0.00000     0.58054    0.00266     0.58320
      H   14    0.41036      0.00000     0.58504    0.00461     0.58964
      H   15    0.24145      0.00000     0.75704    0.00151     0.75855
      H   16    0.24109      0.00000     0.75749    0.00142     0.75891
      H   17    0.23361      0.00000     0.76451    0.00188     0.76639
      H   18    0.41032      0.00000     0.58507    0.00461     0.58968
      H   19    0.41677      0.00000     0.58057    0.00266     0.58323
      H   20    0.24144      0.00000     0.75705    0.00151     0.75856
      H   21    0.24108      0.00000     0.75750    0.00142     0.75892
      H   22    0.23357      0.00000     0.76455    0.00188     0.76643
 =======================================================================
   * Total *    0.00000     23.98940    59.80059    0.21001    84.00000

 Normal termination of Gaussian 16 at Tue Jul  9 19:54:26 2024.
