 Gaussian 16, Revision A.03,

 -------------------------------------------------------
 # opt=CalcFc B3LYP/6-31G** SCRF=(Solvent=water) scf=xqc
 -------------------------------------------------------

 ----------------------------------
 KQSABULTKYLFEV-UHFFFAOYSA-N_conf_1
 ----------------------------------
 Symbolic Z-matrix:
 Charge =  0 Multiplicity = 1

 SCF Done:  E(RB3LYP) =  -496.624836956     A.U. after   12 cycles
 SCF Done:  E(RB3LYP) =  -496.629982580     A.U. after   11 cycles
 SCF Done:  E(RB3LYP) =  -496.630229186     A.U. after   10 cycles
 SCF Done:  E(RB3LYP) =  -496.630231213     A.U. after    8 cycles
 Optimization completed.
    -- Stationary point found.
 Normal termination of Gaussian 16 at Tue Jul  9 18:34:33 2024.

 ----------------------------------------------------------------------
 # freq B3LYP/6-31G** SCRF=(Solvent=water) volume NMR pop=NPA density=c
 urrent Geom=AllCheck Guess=Read
 ----------------------------------------------------------------------

 Structure from the checkpoint file:  "KQSABULTKYLFEV-UHFFFAOYSA-N_conf_1_1.chk"
 ----------------------------------
 KQSABULTKYLFEV-UHFFFAOYSA-N_conf_1
 ----------------------------------
 Charge =  0 Multiplicity = 1

 SCF Done:  E(RB3LYP) =  -496.630231213     A.U. after    1 cycles

      1  N    Isotropic =   200.6010   Anisotropy =    56.3946

      2  C    Isotropic =    52.6562   Anisotropy =   151.7238

      3  C    Isotropic =    86.6466   Anisotropy =   122.5269

      4  C    Isotropic =    71.7112   Anisotropy =   160.6787

      5  C    Isotropic =    84.6745   Anisotropy =   146.6495

      6  C    Isotropic =    71.6752   Anisotropy =   175.2275

      7  C    Isotropic =    52.6562   Anisotropy =   151.7238

      8  N    Isotropic =   200.6010   Anisotropy =    56.3947

      9  C    Isotropic =    86.6466   Anisotropy =   122.5269

     10  C    Isotropic =    71.7112   Anisotropy =   160.6787

     11  C    Isotropic =    84.6745   Anisotropy =   146.6495

     12  C    Isotropic =    71.6752   Anisotropy =   175.2275

     13  H    Isotropic =    27.9647   Anisotropy =    11.9316

     14  H    Isotropic =    28.3719   Anisotropy =    12.6298

     15  H    Isotropic =    25.0087   Anisotropy =     6.0944

     16  H    Isotropic =    24.3916   Anisotropy =     4.8780

     17  H    Isotropic =    24.4077   Anisotropy =     8.7888

     18  H    Isotropic =    27.9647   Anisotropy =    11.9316

     19  H    Isotropic =    28.3719   Anisotropy =    12.6298

     20  H    Isotropic =    25.0087   Anisotropy =     6.0944

     21  H    Isotropic =    24.3916   Anisotropy =     4.8780

     22  H    Isotropic =    24.4077   Anisotropy =     8.7888

  Exact polarizability: 232.838   7.551 213.587  -0.000  -0.000  50.197
 Approx polarizability: 278.703   5.363 272.859  -0.000  -0.000  64.600

                      1                      2                      3
                      A                      A                      A
 Frequencies --     95.9716               171.9476               203.5002
 Red. masses --      4.2249                 3.7094                 3.4992
 Frc consts  --      0.0229                 0.0646                 0.0854
 IR Inten    --      1.9751                 2.0303                 5.4821

                      4                      5                      6
                      A                      A                      A
 Frequencies --    268.9042               281.8391               328.4701
 Red. masses --      3.8471                 2.9080                 1.4334
 Frc consts  --      0.1639                 0.1361                 0.0911
 IR Inten    --      5.1889                12.9527                 1.9067

                      7                      8                      9
                      A                      A                      A
 Frequencies --    336.6805               365.1360               465.9613
 Red. masses --      1.0595                 2.2834                 6.0057
 Frc consts  --      0.0708                 0.1794                 0.7683
 IR Inten    --    110.9183                 1.4730                 2.0420

                     10                     11                     12
                      A                      A                      A
 Frequencies --    475.2177               506.1724               515.7302
 Red. masses --      3.5659                 3.1943                 5.6288
 Frc consts  --      0.4745                 0.4822                 0.8821
 IR Inten    --      3.5718                85.8414                 0.9717

                     13                     14                     15
                      A                      A                      A
 Frequencies --    525.1683               548.1008               600.7110
 Red. masses --      3.1777                 6.1830                 3.3879
 Frc consts  --      0.5164                 1.0944                 0.7203
 IR Inten    --     22.7810                12.7181                 2.8465

                     16                     17                     18
                      A                      A                      A
 Frequencies --    635.0128               661.6889               662.0039
 Red. masses --      1.9750                 1.5341                 4.1598
 Frc consts  --      0.4692                 0.3957                 1.0741
 IR Inten    --    102.5965               825.4802                 4.8037

                     19                     20                     21
                      A                      A                      A
 Frequencies --    714.1883               730.0656               781.2989
 Red. masses --      2.3096                 1.4069                 1.2960
 Frc consts  --      0.6941                 0.4418                 0.4661
 IR Inten    --    136.2387                 6.6032               119.6988

                     22                     23                     24
                      A                      A                      A
 Frequencies --    793.7119               821.5637               869.3019
 Red. masses --      4.9071                 4.5379                 1.3910
 Frc consts  --      1.8214                 1.8046                 0.6193
 IR Inten    --      4.6725                34.8327                 2.9094

                     25                     26                     27
                      A                      A                      A
 Frequencies --    869.7241               879.8357               950.1115
 Red. masses --      1.9485                 2.5211                 3.9070
 Frc consts  --      0.8684                 1.1498                 2.0780
 IR Inten    --      3.9465                17.1505                21.0622

                     28                     29                     30
                      A                      A                      A
 Frequencies --    958.2449               963.6576              1067.6723
 Red. masses --      1.2531                 1.2737                 1.8573
 Frc consts  --      0.6779                 0.6969                 1.2474
 IR Inten    --      0.3939                 1.7403                 0.0049

                     31                     32                     33
                      A                      A                      A
 Frequencies --   1096.6671              1132.8452              1146.7877
 Red. masses --      2.2694                 1.4801                 1.4356
 Frc consts  --      1.6081                 1.1191                 1.1124
 IR Inten    --     21.0042                30.8419                 0.0001

                     34                     35                     36
                      A                      A                      A
 Frequencies --   1191.8459              1202.1911              1234.6095
 Red. masses --      1.1189                 1.2430                 2.2989
 Frc consts  --      0.9364                 1.0584                 2.0645
 IR Inten    --      0.2392                 9.9193                 0.1334

                     37                     38                     39
                      A                      A                      A
 Frequencies --   1247.2777              1307.0420              1323.2119
 Red. masses --      2.1292                 2.4923                 2.2316
 Frc consts  --      1.9517                 2.5086                 2.3021
 IR Inten    --     16.8374                 1.2156               113.5540

                     40                     41                     42
                      A                      A                      A
 Frequencies --   1401.9458              1406.2530              1460.7251
 Red. masses --      2.6907                 8.3344                 2.6308
 Frc consts  --      3.1159                 9.7107                 3.3073
 IR Inten    --     30.3242                 0.0003               257.8998

                     43                     44                     45
                      A                      A                      A
 Frequencies --   1477.4702              1504.7628              1566.2364
 Red. masses --      2.3713                 2.4532                 3.8886
 Frc consts  --      3.0498                 3.2728                 5.6203
 IR Inten    --      1.7232                 0.1321               219.0257

                     46                     47                     48
                      A                      A                      A
 Frequencies --   1627.4172              1637.0422              1659.9302
 Red. masses --      3.8207                 2.9753                 1.8438
 Frc consts  --      5.9620                 4.6979                 2.9932
 IR Inten    --      2.9884                26.2488                23.0483

                     49                     50                     51
                      A                      A                      A
 Frequencies --   1663.2600              1672.0879              3173.2950
 Red. masses --      1.3374                 2.5861                 1.0874
 Frc consts  --      2.1799                 4.2601                 6.4518
 IR Inten    --    311.3526                18.3456                54.1862

                     52                     53                     54
                      A                      A                      A
 Frequencies --   3173.8606              3190.2867              3190.4594
 Red. masses --      1.0879                 1.0906                 1.0912
 Frc consts  --      6.4566                 6.5399                 6.5446
 IR Inten    --      0.1353                 0.0604                64.1979

                     55                     56                     57
                      A                      A                      A
 Frequencies --   3211.8804              3212.6859              3553.9683
 Red. masses --      1.0941                 1.0938                 1.0490
 Frc consts  --      6.6501                 6.6513                 7.8062
 IR Inten    --     63.8517                 0.0003                12.6306

                     58                     59                     60
                      A                      A                      A
 Frequencies --   3554.1172              3649.9453              3649.9691
 Red. masses --      1.0489                 1.0971                 1.0971
 Frc consts  --      7.8067                 8.6115                 8.6112
 IR Inten    --     25.4737                46.1292                 1.6554

 - Thermochemistry -
 -------------------
 Temperature   298.150 Kelvin.  Pressure   1.00000 Atm.
 Atom     1 has atomic number  7 and mass  14.00307

 Molecular mass:   158.08440 amu.
 Principal axes and moments of inertia in atomic units:
                           1         2         3
     Eigenvalues --  1167.479951977.820243138.05222
           X            0.99993  -0.01210  -0.00000
           Y            0.01210   0.99993   0.00000
           Z            0.00000  -0.00000   1.00000
 This molecule is an asymmetric top.
 Rotational symmetry number  1.
 Warning -- assumption of classical behavior for rotation
           may cause significant error
 Rotational temperatures (Kelvin)      0.07419     0.04379     0.02760
 Rotational constants (GHZ):           1.54584     0.91249     0.57512
 Zero-point vibrational energy     475920.4 (Joules/Mol)
                                  113.74769 (Kcal/Mol)
 Warning -- explicit consideration of  15 degrees of freedom as
           vibrations may cause significant error
 Vibrational temperatures:    138.08   247.39   292.79   386.89   405.50
          (Kelvin)            472.60   484.41   525.35   670.41   683.73
                              728.27   742.02   755.60   788.59   864.29
                              913.64   952.02   952.48  1027.56  1050.40
                             1124.11  1141.97  1182.05  1250.73  1251.34
                             1265.89  1367.00  1378.70  1386.49  1536.14
                             1577.86  1629.91  1649.97  1714.80  1729.68
                             1776.33  1794.55  1880.54  1903.81  2017.09
                             2023.28  2101.66  2125.75  2165.02  2253.46
                             2341.49  2355.34  2388.27  2393.06  2405.76
                             4565.66  4566.48  4590.11  4590.36  4621.18
                             4622.34  5113.37  5113.58  5251.46  5251.49

 Zero-point correction=                           0.181268 (Hartree/Particle)
 Thermal correction to Energy=                    0.190879
 Thermal correction to Enthalpy=                  0.191823
 Thermal correction to Gibbs Free Energy=         0.147069
 Sum of electronic and zero-point Energies=           -496.448963
 Sum of electronic and thermal Energies=              -496.439352
 Sum of electronic and thermal Enthalpies=            -496.438408
 Sum of electronic and thermal Free Energies=         -496.483163

                     E (Thermal)             CV                S
                      KCal/Mol        Cal/Mol-Kelvin    Cal/Mol-Kelvin
 Total                  119.778             40.342             94.194
 Electronic               0.000              0.000              0.000
 Translational            0.889              2.981             41.083
 Rotational               0.889              2.981             30.361
 Vibrational            118.001             34.380             22.750
 Vibration     1          0.603              1.952              3.535
 Vibration     2          0.626              1.877              2.414
 Vibration     3          0.639              1.835              2.101
 Vibration     4          0.673              1.730              1.603
 Vibration     5          0.681              1.707              1.522
 Vibration     6          0.712              1.619              1.268
 Vibration     7          0.717              1.602              1.228
 Vibration     8          0.738              1.544              1.100
 Vibration     9          0.823              1.326              0.749
 Vibration    10          0.832              1.305              0.723
 Vibration    11          0.861              1.236              0.643
 Vibration    12          0.871              1.215              0.620
 Vibration    13          0.880              1.194              0.598
 Vibration    14          0.903              1.144              0.548
 Vibration    15          0.959              1.030              0.448

                           ! Non-Optimized Parameters !
 Normal termination of Gaussian 16 at Tue Jul  9 19:07:30 2024.
 Gaussian 16:  EM64L-G16RevA.03 25-Dec-2016

 ----------------------------------------------------------------------
 # TD(NStates=10, Root=1) B3LYP/6-31G** SCRF=(Solvent=water) volume pop
 =NPA density=current Geom=AllCheck Guess=Read
 ----------------------------------------------------------------------

 Structure from the checkpoint file:  "KQSABULTKYLFEV-UHFFFAOYSA-N_conf_1_2.chk"
 ----------------------------------
 KQSABULTKYLFEV-UHFFFAOYSA-N_conf_1
 ----------------------------------
 Charge =  0 Multiplicity = 1

                         Standard orientation:
 ---------------------------------------------------------------------
 Center     Atomic      Atomic             Coordinates (Angstroms)
 Number     Number       Type             X           Y           Z
 ---------------------------------------------------------------------
      1          7           0        2.768418   -1.367289    0.013274
      2          6           0        1.868353   -0.296522    0.019696
      3          6           0        2.325643    1.013440   -0.009485
      4          6           0        1.423531    2.094168   -0.064290
      5          6           0        0.062092    1.881056   -0.053718
      6          6           0       -0.452810    0.556802   -0.010333
      7          6           0       -1.868353    0.296522    0.019696
      8          7           0       -2.768418    1.367289    0.013274
      9          6           0       -2.325643   -1.013440   -0.009485
     10          6           0       -1.423531   -2.094168   -0.064290
     11          6           0       -0.062092   -1.881056   -0.053718
     12          6           0        0.452810   -0.556802   -0.010333
     13          1           0        2.486158   -2.161067    0.574848
     14          1           0        3.715994   -1.096933    0.247214
     15          1           0        3.395622    1.203845    0.010431
     16          1           0        1.814079    3.107001   -0.104090
     17          1           0       -0.612484    2.727688   -0.112541
     18          1           0       -2.486158    2.161067    0.574848
     19          1           0       -3.715993    1.096933    0.247215
     20          1           0       -3.395622   -1.203845    0.010431
     21          1           0       -1.814079   -3.107001   -0.104090
     22          1           0        0.612484   -2.727688   -0.112541
 ---------------------------------------------------------------------

 SCF Done:  E(RB3LYP) =  -496.630231213     A.U. after    1 cycles

 Excitation energies and oscillator strengths:

 Excited State   1:      Singlet-A      3.8046 eV  325.88 nm  f=0.3062  <S**2>=0.000
      42 -> 43         0.69495
 This state for optimization and/or second-order correction.
 Total Energy, E(TD-HF/TD-DFT) =  -496.490413026
 Copying the excited state density for this state as the 1-particle RhoCI density.

 Excited State   2:      Singlet-A      4.0724 eV  304.45 nm  f=0.1843  <S**2>=0.000
      40 -> 43         0.23738
      42 -> 44         0.65862

 Excited State   3:      Singlet-A      4.7203 eV  262.66 nm  f=0.0001  <S**2>=0.000
      41 -> 43         0.68461
      42 -> 45        -0.14792

 Excited State   4:      Singlet-A      5.1710 eV  239.77 nm  f=0.0000  <S**2>=0.000
      40 -> 45         0.10499
      41 -> 44         0.68905

 Excited State   5:      Singlet-A      5.3610 eV  231.27 nm  f=1.0390  <S**2>=0.000
      40 -> 43         0.65707
      42 -> 44        -0.23498

 Excited State   6:      Singlet-A      5.8201 eV  213.03 nm  f=0.0002  <S**2>=0.000
      38 -> 43        -0.10539
      41 -> 43         0.14000
      42 -> 45         0.67988

 Excited State   7:      Singlet-A      6.0283 eV  205.67 nm  f=0.3268  <S**2>=0.000
      39 -> 43         0.11708
      40 -> 44         0.67881
      41 -> 45        -0.12169

 Excited State   8:      Singlet-A      6.4017 eV  193.67 nm  f=0.0047  <S**2>=0.000
      42 -> 46         0.69196

 Excited State   9:      Singlet-A      6.6276 eV  187.07 nm  f=0.0058  <S**2>=0.000
      39 -> 43        -0.30785
      42 -> 47         0.61764

 Excited State  10:      Singlet-A      6.6668 eV  185.97 nm  f=0.2244  <S**2>=0.000
      39 -> 43         0.50059
      39 -> 44        -0.13279
      41 -> 45         0.35399
      42 -> 47         0.29511

 The electronic state is 1-A.
 Alpha  occ. eigenvalues --  -14.33765 -14.33765 -10.22856 -10.22856 -10.19541
 Alpha  occ. eigenvalues --  -10.19500 -10.18660 -10.18660 -10.17987 -10.17987
 Alpha  occ. eigenvalues --  -10.17973 -10.17973  -0.92074  -0.91359  -0.84320
 Alpha  occ. eigenvalues --   -0.80818  -0.74039  -0.73686  -0.70258  -0.62029
 Alpha  occ. eigenvalues --   -0.61722  -0.57989  -0.52912  -0.52597  -0.50536
 Alpha  occ. eigenvalues --   -0.48353  -0.47610  -0.45601  -0.43942  -0.41715
 Alpha  occ. eigenvalues --   -0.40700  -0.39914  -0.39234  -0.37826  -0.35516
 Alpha  occ. eigenvalues --   -0.34090  -0.33167  -0.30950  -0.29861  -0.24215
 Alpha  occ. eigenvalues --   -0.22290  -0.18325
 Alpha virt. eigenvalues --   -0.02550  -0.00701   0.05136   0.08314   0.09311
 Alpha virt. eigenvalues --    0.10756   0.11298   0.12166   0.14562   0.16072
 Alpha virt. eigenvalues --    0.16923   0.19504   0.20229   0.21212   0.22206

 Mulliken charges:
               1
     1  N   -0.646928
     2  C    0.169120
     3  C   -0.114747
     4  C   -0.136555
     5  C   -0.178350
     6  C    0.080543
     7  C    0.169120
     8  N   -0.646928
     9  C   -0.114747
    10  C   -0.136555
    11  C   -0.178350
    12  C    0.080543
    13  H    0.277063
    14  H    0.282959
    15  H    0.095222
    16  H    0.086330
    17  H    0.085342
    18  H    0.277063
    19  H    0.282959
    20  H    0.095222
    21  H    0.086330
    22  H    0.085342
 Sum of Mulliken charges =  -0.00000

 Dipole moment (field-independent basis, Debye):
    X=              0.0000    Y=              0.0000    Z=              2.6252  Tot=              2.6252
 Quadrupole moment (field-independent basis, Debye-Ang):
   XX=            -47.7604   YY=            -62.4213   ZZ=            -74.9285
   XY=             -6.1529   XZ=             -0.0000   YZ=             -0.0000

 Summary of Natural Population Analysis:

                                       Natural Population
                Natural  -----------------------------------------------
    Atom  No    Charge         Core      Valence    Rydberg      Total
 -----------------------------------------------------------------------
      N    1   -0.80827      1.99951     5.79576    0.01300     7.80827
      C    2    0.14330      1.99895     3.83922    0.01854     5.85670
      C    3   -0.25380      1.99905     4.24130    0.01344     6.25380
      C    4   -0.27530      1.99913     4.25958    0.01659     6.27530
      C    5   -0.27296      1.99907     4.25688    0.01701     6.27296
      C    6   -0.07731      1.99900     4.06396    0.01436     6.07731
      C    7    0.14330      1.99895     3.83922    0.01854     5.85670
      N    8   -0.80827      1.99951     5.79576    0.01300     7.80827
      C    9   -0.25380      1.99905     4.24130    0.01344     6.25380
      C   10   -0.27530      1.99913     4.25958    0.01659     6.27530
      C   11   -0.27296      1.99907     4.25688    0.01701     6.27296
      C   12   -0.07731      1.99900     4.06396    0.01436     6.07731
      H   13    0.41033      0.00000     0.58494    0.00473     0.58967
      H   14    0.41700      0.00000     0.58035    0.00265     0.58300
      H   15    0.24150      0.00000     0.75700    0.00151     0.75850
      H   16    0.24111      0.00000     0.75747    0.00142     0.75889
      H   17    0.23440      0.00000     0.76369    0.00192     0.76560
      H   18    0.41033      0.00000     0.58494    0.00473     0.58967
      H   19    0.41700      0.00000     0.58035    0.00265     0.58300
      H   20    0.24150      0.00000     0.75700    0.00151     0.75850
      H   21    0.24111      0.00000     0.75747    0.00142     0.75889
      H   22    0.23440      0.00000     0.76369    0.00192     0.76560
 =======================================================================
   * Total *   -0.00000     23.98940    59.80028    0.21032    84.00000

 Normal termination of Gaussian 16 at Tue Jul  9 19:39:16 2024.
