 Gaussian 16, Revision A.03,

 -------------------------------------------------------
 # opt=CalcFc B3LYP/6-31G** SCRF=(Solvent=water) scf=xqc
 -------------------------------------------------------

 ----------------------------------
 UQUPIHHYKUEXQD-UHFFFAOYSA-N_conf_1
 ----------------------------------
 Symbolic Z-matrix:
 Charge =  0 Multiplicity = 1

 SCF Done:  E(RB3LYP) =  -308.466233404     A.U. after   11 cycles
 SCF Done:  E(RB3LYP) =  -308.468754506     A.U. after    9 cycles
 SCF Done:  E(RB3LYP) =  -308.468830534     A.U. after    8 cycles
 SCF Done:  E(RB3LYP) =  -308.468831116     A.U. after    7 cycles
 SCF Done:  E(RB3LYP) =  -308.468831129     A.U. after    6 cycles
 Optimization completed.
    -- Stationary point found.
 Normal termination of Gaussian 16 at Thu Jul 11 19:04:06 2024.

 ----------------------------------------------------------------------
 # freq B3LYP/6-31G** SCRF=(Solvent=water) volume NMR pop=NPA density=c
 urrent Geom=AllCheck Guess=Read
 ----------------------------------------------------------------------

 Structure from the checkpoint file:  "UQUPIHHYKUEXQD-UHFFFAOYSA-N_conf_1_1.chk"
 ----------------------------------
 UQUPIHHYKUEXQD-UHFFFAOYSA-N_conf_1
 ----------------------------------
 Charge =  0 Multiplicity = 1

 SCF Done:  E(RB3LYP) =  -308.468831129     A.U. after    1 cycles

      1  C    Isotropic =   154.4308   Anisotropy =    54.5636

      2  N    Isotropic =   222.9784   Anisotropy =    42.7510

      3  C    Isotropic =   140.1146   Anisotropy =    50.1278

      4  C    Isotropic =   158.5481   Anisotropy =    23.0999

      5  C    Isotropic =   140.1224   Anisotropy =    40.6462

      6  N    Isotropic =   223.3558   Anisotropy =    33.9361

      7  C    Isotropic =   154.4072   Anisotropy =    54.8024

      8  H    Isotropic =    29.6121   Anisotropy =     8.5788

      9  H    Isotropic =    29.2364   Anisotropy =     9.8657

     10  H    Isotropic =    29.4226   Anisotropy =     8.7463

     11  H    Isotropic =    31.7734   Anisotropy =    11.9432

     12  H    Isotropic =    29.0654   Anisotropy =     6.0728

     13  H    Isotropic =    29.6259   Anisotropy =     4.5427

     14  H    Isotropic =    30.1833   Anisotropy =     5.6081

     15  H    Isotropic =    30.1164   Anisotropy =     6.9019

     16  H    Isotropic =    29.3644   Anisotropy =     6.2758

     17  H    Isotropic =    29.1217   Anisotropy =     5.8777

     18  H    Isotropic =    31.4554   Anisotropy =    11.6194

     19  H    Isotropic =    29.4691   Anisotropy =     9.0520

     20  H    Isotropic =    29.6768   Anisotropy =     8.7460

     21  H    Isotropic =    29.2527   Anisotropy =     9.7776

  Exact polarizability: 100.056   0.031  83.969   1.065  -0.358  80.065
 Approx polarizability:  96.153  -0.429  90.923   0.779  -0.167  88.870

                      1                      2                      3
                      A                      A                      A
 Frequencies --     73.9085                76.3964                84.3367
 Red. masses --      1.9120                 1.9727                 2.7215
 Frc consts  --      0.0062                 0.0068                 0.0114
 IR Inten    --      3.7689                 7.4867                 0.0946

                      4                      5                      6
                      A                      A                      A
 Frequencies --    131.6474               204.7116               247.7612
 Red. masses --      2.5041                 2.1216                 1.3166
 Frc consts  --      0.0256                 0.0524                 0.0476
 IR Inten    --      0.6541                 2.7293                 0.4350

                      7                      8                      9
                      A                      A                      A
 Frequencies --    256.9502               289.3892               323.0836
 Red. masses --      1.1681                 1.8988                 3.3150
 Frc consts  --      0.0454                 0.0937                 0.2039
 IR Inten    --      3.6226                 5.8291                 0.4342

                     10                     11                     12
                      A                      A                      A
 Frequencies --    419.9222               533.1325               767.4489
 Red. masses --      2.7130                 2.6561                 1.4459
 Frc consts  --      0.2819                 0.4448                 0.5017
 IR Inten    --      4.0485                 2.5600                44.8850

                     13                     14                     15
                      A                      A                      A
 Frequencies --    797.0292               806.5927               910.0394
 Red. masses --      1.2912                 1.2208                 1.5992
 Frc consts  --      0.4833                 0.4679                 0.7803
 IR Inten    --     97.2793               152.7992                17.5271

                     16                     17                     18
                      A                      A                      A
 Frequencies --    922.8082               984.8513              1035.3403
 Red. masses --      1.5793                 2.0985                 1.6899
 Frc consts  --      0.7924                 1.1992                 1.0673
 IR Inten    --      5.7278                 6.5035                12.3798

                     19                     20                     21
                      A                      A                      A
 Frequencies --   1062.5253              1085.0982              1132.7675
 Red. masses --      2.2364                 1.6100                 1.4569
 Frc consts  --      1.4876                 1.1169                 1.1014
 IR Inten    --     19.0086                 8.6791                 5.0268

                     22                     23                     24
                      A                      A                      A
 Frequencies --   1135.6560              1144.4674              1164.5397
 Red. masses --      2.0022                 2.6484                 1.8896
 Frc consts  --      1.5214                 2.0438                 1.5099
 IR Inten    --     20.7363                61.2346                18.3246

                     25                     26                     27
                      A                      A                      A
 Frequencies --   1194.7814              1212.1835              1268.9949
 Red. masses --      1.7902                 1.7645                 1.4542
 Frc consts  --      1.5057                 1.5276                 1.3797
 IR Inten    --     27.8860                 4.3285                 6.6766

                     28                     29                     30
                      A                      A                      A
 Frequencies --   1307.4231              1325.4072              1349.6540
 Red. masses --      1.3502                 1.1633                 1.2396
 Frc consts  --      1.3598                 1.2040                 1.3304
 IR Inten    --      8.2312                 2.5049                 8.2315

                     31                     32                     33
                      A                      A                      A
 Frequencies --   1400.1362              1420.4437              1464.4213
 Red. masses --      1.3364                 1.4660                 1.1731
 Frc consts  --      1.5435                 1.7428                 1.4823
 IR Inten    --     20.8443                 6.5343                 5.3106

                     34                     35                     36
                      A                      A                      A
 Frequencies --   1465.5489              1483.0381              1487.5078
 Red. masses --      1.1749                 1.1559                 1.1597
 Frc consts  --      1.4868                 1.4978                 1.5118
 IR Inten    --      1.0756                10.0421                21.9781

                     37                     38                     39
                      A                      A                      A
 Frequencies --   1490.1066              1495.4601              1495.8522
 Red. masses --      1.1705                 1.0721                 1.0708
 Frc consts  --      1.5313                 1.4127                 1.4117
 IR Inten    --     27.6054                 1.7395                 7.8074

                     40                     41                     42
                      A                      A                      A
 Frequencies --   1520.2165              1521.3422              1523.7640
 Red. masses --      1.0696                 1.0612                 1.0646
 Frc consts  --      1.4564                 1.4471                 1.4564
 IR Inten    --     30.6746                 8.8007                 3.3710

                     43                     44                     45
                      A                      A                      A
 Frequencies --   1528.0515              2919.7338              2922.8152
 Red. masses --      1.0847                 1.0730                 1.0725
 Frc consts  --      1.4923                 5.3892                 5.3984
 IR Inten    --      0.5333               143.4441               125.1265

                     46                     47                     48
                      A                      A                      A
 Frequencies --   2953.7170              2954.1914              3026.2403
 Red. masses --      1.0586                 1.0586                 1.0745
 Frc consts  --      5.4416                 5.4434                 5.7980
 IR Inten    --    153.0719               134.5545                 9.0104

                     49                     50                     51
                      A                      A                      A
 Frequencies --   3032.6729              3048.1054              3061.4503
 Red. masses --      1.0753                 1.0850                 1.0760
 Frc consts  --      5.8271                 5.9394                 5.9418
 IR Inten    --     73.5642                95.3794                74.3494

                     52                     53                     54
                      A                      A                      A
 Frequencies --   3062.1950              3079.5320              3111.1351
 Red. masses --      1.0759                 1.1022                 1.1019
 Frc consts  --      5.9439                 6.1585                 6.2839
 IR Inten    --     57.6217                76.8037                50.6886

                     55                     56                     57
                      A                      A                      A
 Frequencies --   3111.7368              3498.4928              3514.7904
 Red. masses --      1.1019                 1.0740                 1.0739
 Frc consts  --      6.2863                 7.7452                 7.8168
 IR Inten    --     50.8491                 0.6674                 0.5046

 - Thermochemistry -
 -------------------
 Temperature   298.150 Kelvin.  Pressure   1.00000 Atm.
 Atom     1 has atomic number  6 and mass  12.00000

 Molecular mass:   102.11570 amu.
 Principal axes and moments of inertia in atomic units:
                           1         2         3
     Eigenvalues --   237.088462015.405792147.12350
           X            0.99996   0.00706   0.00506
           Y           -0.00697   0.99982  -0.01784
           Z           -0.00518   0.01781   0.99983
 This molecule is an asymmetric top.
 Rotational symmetry number  1.
 Rotational temperatures (Kelvin)      0.36532     0.04298     0.04034
 Rotational constants (GHZ):           7.61210     0.89547     0.84054
 Zero-point vibrational energy     513446.5 (Joules/Mol)
                                  122.71665 (Kcal/Mol)
 Warning -- explicit consideration of  11 degrees of freedom as
           vibrations may cause significant error
 Vibrational temperatures:    106.34   109.92   121.34   189.41   294.53
          (Kelvin)            356.47   369.69   416.37   464.85   604.17
                              767.06  1104.19  1146.75  1160.51  1309.34
                             1327.72  1416.98  1489.62  1528.74  1561.21
                             1629.80  1633.96  1646.63  1675.51  1719.02
                             1744.06  1825.80  1881.09  1906.97  1941.85
                             2014.48  2043.70  2106.98  2108.60  2133.76
                             2140.19  2143.93  2151.63  2152.20  2187.25
                             2188.87  2192.36  2198.53  4200.85  4205.28
                             4249.74  4250.42  4354.08  4363.34  4385.54
                             4404.74  4405.82  4430.76  4476.23  4477.10
                             5033.55  5057.00

 Zero-point correction=                           0.195561 (Hartree/Particle)
 Thermal correction to Energy=                    0.204939
 Thermal correction to Enthalpy=                  0.205883
 Thermal correction to Gibbs Free Energy=         0.160989
 Sum of electronic and zero-point Energies=           -308.273270
 Sum of electronic and thermal Energies=              -308.263892
 Sum of electronic and thermal Enthalpies=            -308.262948
 Sum of electronic and thermal Free Energies=         -308.307842

                     E (Thermal)             CV                S
                      KCal/Mol        Cal/Mol-Kelvin    Cal/Mol-Kelvin
 Total                  128.601             32.342             94.488
 Electronic               0.000              0.000              0.000
 Translational            0.889              2.981             39.780
 Rotational               0.889              2.981             28.419
 Vibrational            126.824             26.380             26.289
 Vibration     1          0.599              1.966              4.046
 Vibration     2          0.599              1.965              3.981
 Vibration     3          0.601              1.960              3.787
 Vibration     4          0.612              1.922              2.922
 Vibration     5          0.640              1.833              2.090
 Vibration     6          0.661              1.766              1.746
 Vibration     7          0.667              1.751              1.682
 Vibration     8          0.686              1.693              1.478
 Vibration     9          0.708              1.629              1.294
 Vibration    10          0.783              1.427              0.892
 Vibration    11          0.888              1.177              0.580

 Optimization completed.
    -- Stationary point found.
 Normal termination of Gaussian 16 at Thu Jul 11 19:19:23 2024.
 Gaussian 16:  EM64L-G16RevA.03 25-Dec-2016

 ----------------------------------------------------------------------
 # TD(NStates=10, Root=1) B3LYP/6-31G** SCRF=(Solvent=water) volume pop
 =NPA density=current Geom=AllCheck Guess=Read
 ----------------------------------------------------------------------

 Structure from the checkpoint file:  "UQUPIHHYKUEXQD-UHFFFAOYSA-N_conf_1_2.chk"
 ----------------------------------
 UQUPIHHYKUEXQD-UHFFFAOYSA-N_conf_1
 ----------------------------------
 Charge =  0 Multiplicity = 1

                         Standard orientation:
 ---------------------------------------------------------------------
 Center     Atomic      Atomic             Coordinates (Angstroms)
 Number     Number       Type             X           Y           Z
 ---------------------------------------------------------------------
      1          6           0       -3.387822   -0.703793    0.091928
      2          7           0       -2.396425    0.336153   -0.176108
      3          6           0       -1.040505   -0.066781    0.201916
      4          6           0       -0.024853    1.025148   -0.144487
      5          6           0        1.404257    0.729955    0.320322
      6          7           0        2.012020   -0.389429   -0.403511
      7          6           0        3.388480   -0.644254    0.017611
      8          1           0       -3.472005   -0.859951    1.173605
      9          1           0       -4.366884   -0.383610   -0.276773
     10          1           0       -3.152146   -1.681428   -0.365177
     11          1           0       -2.401931    0.535834   -1.175000
     12          1           0       -0.749476   -1.025186   -0.269510
     13          1           0       -1.031077   -0.242708    1.286858
     14          1           0       -0.016374    1.186865   -1.230747
     15          1           0       -0.358734    1.962429    0.316223
     16          1           0        2.025601    1.615522    0.134785
     17          1           0        1.409126    0.576569    1.417305
     18          1           0        1.465985   -1.229117   -0.224727
     19          1           0        3.507011   -0.802525    1.104387
     20          1           0        4.020333    0.207507   -0.259698
     21          1           0        3.774067   -1.528922   -0.497932
 ---------------------------------------------------------------------

 SCF Done:  E(RB3LYP) =  -308.468831129     A.U. after    1 cycles

 Excitation energies and oscillator strengths:

 Excited State   1:      Singlet-A      7.1305 eV  173.88 nm  f=0.0112  <S**2>=0.000
      28 -> 30         0.43438
      28 -> 31        -0.10054
      29 -> 30         0.53698
 This state for optimization and/or second-order correction.
 Total Energy, E(TD-HF/TD-DFT) =  -308.206790761
 Copying the excited state density for this state as the 1-particle RhoCI density.

 Excited State   2:      Singlet-A      7.2433 eV  171.17 nm  f=0.0207  <S**2>=0.000
      28 -> 30        -0.17667
      28 -> 31        -0.44166
      29 -> 30         0.12498
      29 -> 31         0.50002

 Excited State   3:      Singlet-A      7.6242 eV  162.62 nm  f=0.0524  <S**2>=0.000
      28 -> 30         0.50866
      28 -> 31        -0.15144
      29 -> 30        -0.42439
      29 -> 31         0.13620

 Excited State   4:      Singlet-A      7.8230 eV  158.49 nm  f=0.0396  <S**2>=0.000
      28 -> 31         0.49517
      29 -> 31         0.45244
      29 -> 34        -0.11052

 Excited State   5:      Singlet-A      8.1332 eV  152.44 nm  f=0.0494  <S**2>=0.000
      28 -> 32         0.39894
      28 -> 33         0.10563
      29 -> 32         0.54192

 Excited State   6:      Singlet-A      8.2536 eV  150.22 nm  f=0.0521  <S**2>=0.000
      28 -> 32         0.31985
      28 -> 33        -0.35641
      29 -> 32        -0.22134
      29 -> 33         0.43992

 Excited State   7:      Singlet-A      8.4407 eV  146.89 nm  f=0.0694  <S**2>=0.000
      28 -> 32         0.42616
      28 -> 33         0.24814
      29 -> 32        -0.35544
      29 -> 33        -0.24325
      29 -> 34         0.22892

 Excited State   8:      Singlet-A      8.4895 eV  146.04 nm  f=0.0251  <S**2>=0.000
      28 -> 31         0.10957
      28 -> 32        -0.16561
      28 -> 34         0.42040
      29 -> 33         0.14836
      29 -> 34         0.48672

 Excited State   9:      Singlet-A      8.6642 eV  143.10 nm  f=0.0784  <S**2>=0.000
      28 -> 33         0.50532
      28 -> 34        -0.11388
      29 -> 33         0.42225
      29 -> 34        -0.11982

 Excited State  10:      Singlet-A      8.7226 eV  142.14 nm  f=0.0249  <S**2>=0.000
      28 -> 33         0.14005
      28 -> 34         0.48680
      28 -> 35         0.13571
      29 -> 33        -0.14995
      29 -> 34        -0.36376
      29 -> 35        -0.16745

 The electronic state is 1-A.
 Alpha  occ. eigenvalues --  -14.31526 -14.31472 -10.20269 -10.20240 -10.19738
 Alpha  occ. eigenvalues --  -10.19735 -10.17782  -0.89941  -0.89140  -0.76208
 Alpha  occ. eigenvalues --   -0.68838  -0.64720  -0.62197  -0.57909  -0.48388
 Alpha  occ. eigenvalues --   -0.48201  -0.45432  -0.43754  -0.43365  -0.40906
 Alpha  occ. eigenvalues --   -0.39865  -0.38671  -0.36894  -0.36218  -0.33567
 Alpha  occ. eigenvalues --   -0.33359  -0.32517  -0.22312  -0.22063
 Alpha virt. eigenvalues --    0.08682   0.09257   0.11830   0.12605   0.12759
 Alpha virt. eigenvalues --    0.15314   0.16001   0.16619   0.17145   0.18189
 Alpha virt. eigenvalues --    0.18606   0.19450   0.19735   0.21613   0.22631

 Mulliken charges:
               1
     1  C   -0.171176
     2  N   -0.534194
     3  C    0.020447
     4  C   -0.205910
     5  C   -0.059643
     6  N   -0.083069
     7  C   -0.202899
     8  H    0.109109
     9  H    0.105812
    10  H    0.084647
    11  H    0.243997
    12  H   -0.008200
    13  H    0.061721
    14  H    0.103837
    15  H    0.103151
    16  H    0.089934
    17  H    0.091111
    18  H   -0.078304
    19  H    0.134883
    20  H    0.116182
    21  H    0.078565
 Sum of Mulliken charges =   0.00000

 Dipole moment (field-independent basis, Debye):
    X=              2.5426    Y=              0.8210    Z=             -0.6896  Tot=              2.7595
 Quadrupole moment (field-independent basis, Debye-Ang):
   XX=            -41.5334   YY=            -51.2716   ZZ=            -46.0709
   XY=              3.1171   XZ=              3.1573   YZ=             -0.8675

 Summary of Natural Population Analysis:

                                       Natural Population
                Natural  -----------------------------------------------
    Atom  No    Charge         Core      Valence    Rydberg      Total
 -----------------------------------------------------------------------
      C    1   -0.48289      1.99951     4.47237    0.01101     6.48289
      N    2   -0.71381      1.99958     5.69797    0.01626     7.71381
      C    3   -0.28770      1.99934     4.26608    0.02228     6.28770
      C    4   -0.48955      1.99932     4.47708    0.01315     6.48955
      C    5   -0.35085      1.99930     4.33088    0.02067     6.35085
      N    6   -0.22242      1.99933     5.20413    0.01896     7.22242
      C    7   -0.59303      1.99947     4.57048    0.02308     6.59303
      H    8    0.21941      0.00000     0.77875    0.00184     0.78059
      H    9    0.22928      0.00000     0.76939    0.00132     0.77072
      H   10    0.19543      0.00000     0.80150    0.00307     0.80457
      H   11    0.38366      0.00000     0.61245    0.00388     0.61634
      H   12    0.13934      0.00000     0.83238    0.02829     0.86066
      H   13    0.20452      0.00000     0.78344    0.01204     0.79548
      H   14    0.23663      0.00000     0.75828    0.00509     0.76337
      H   15    0.24252      0.00000     0.75207    0.00540     0.75748
      H   16    0.22628      0.00000     0.75287    0.02085     0.77372
      H   17    0.23416      0.00000     0.73250    0.03334     0.76584
      H   18    0.13556      0.00000     0.76584    0.09860     0.86444
      H   19    0.25437      0.00000     0.72573    0.01990     0.74563
      H   20    0.23039      0.00000     0.75378    0.01583     0.76961
      H   21    0.20868      0.00000     0.77040    0.02092     0.79132
 =======================================================================
   * Total *    0.00000     13.99584    43.60838    0.39578    58.00000

 1\1\GINC-CN33\SP\RB3LYP TD-FC\6-31G(d,p)\C5H14N2\QDUEZ\11-Jul-2024\0\\
 # TD(NStates=10, Root=1) B3LYP/6-31G** SCRF=(Solvent=water) volume pop
 =NPA density=current Geom=AllCheck Guess=Read\\UQUPIHHYKUEXQD-UHFFFAOY
 SA-N_conf_1\\0,1\C,0,-3.4320030436,0.5112298478,-0.3613756268\N,0,-2.4
 12918878,-0.3508442062,0.2340213043\C,0,-1.0701864814,-0.0744472701,-0
 .2802265334\C,0,-0.0250123135,-0.957717953,0.4062854958\C,0,1.39300879
 71,-0.8108168695,-0.1533381729\N,0,1.9772945089,0.5023238654,0.1305670
 629\C,0,3.3439974402,0.6253122181,-0.373334629\H,0,-3.5274576015,0.282

 Normal termination of Gaussian 16 at Thu Jul 11 19:38:40 2024.
