 Gaussian 16, Revision A.03,

 -------------------------------------------------------
 # opt=CalcFc B3LYP/6-31G** SCRF=(Solvent=water) scf=xqc
 -------------------------------------------------------

 ----------------------------------
 UQUPIHHYKUEXQD-UHFFFAOYSA-N_conf_0
 ----------------------------------
 Symbolic Z-matrix:
 Charge =  0 Multiplicity = 1

 SCF Done:  E(RB3LYP) =  -308.463487380     A.U. after   11 cycles
 SCF Done:  E(RB3LYP) =  -308.466322386     A.U. after    9 cycles
 SCF Done:  E(RB3LYP) =  -308.466546977     A.U. after    9 cycles
 SCF Done:  E(RB3LYP) =  -308.466559743     A.U. after    9 cycles
 SCF Done:  E(RB3LYP) =  -308.466562481     A.U. after    7 cycles
 SCF Done:  E(RB3LYP) =  -308.466562588     A.U. after    7 cycles
 Optimization completed.
    -- Stationary point found.
 Normal termination of Gaussian 16 at Thu Jul 11 19:03:52 2024.

 ----------------------------------------------------------------------
 # freq B3LYP/6-31G** SCRF=(Solvent=water) volume NMR pop=NPA density=c
 urrent Geom=AllCheck Guess=Read
 ----------------------------------------------------------------------

 Structure from the checkpoint file:  "UQUPIHHYKUEXQD-UHFFFAOYSA-N_conf_0_1.chk"
 ----------------------------------
 UQUPIHHYKUEXQD-UHFFFAOYSA-N_conf_0
 ----------------------------------
 Charge =  0 Multiplicity = 1

 SCF Done:  E(RB3LYP) =  -308.466562588     A.U. after    1 cycles

      1  C    Isotropic =   157.1259   Anisotropy =    49.9014

      2  N    Isotropic =   230.4776   Anisotropy =    50.3866

      3  C    Isotropic =   141.5676   Anisotropy =    40.4890

      4  C    Isotropic =   165.8689   Anisotropy =    23.3273

      5  C    Isotropic =   141.9789   Anisotropy =    47.8082

      6  N    Isotropic =   228.2688   Anisotropy =    58.6206

      7  C    Isotropic =   157.4765   Anisotropy =    48.7548

      8  H    Isotropic =    29.4034   Anisotropy =     9.5084

      9  H    Isotropic =    29.2707   Anisotropy =     7.1139

     10  H    Isotropic =    29.7856   Anisotropy =     9.4213

     11  H    Isotropic =    31.3231   Anisotropy =    15.6441

     12  H    Isotropic =    29.1297   Anisotropy =     7.6917

     13  H    Isotropic =    29.0583   Anisotropy =     7.0485

     14  H    Isotropic =    31.1596   Anisotropy =     7.9176

     15  H    Isotropic =    29.3010   Anisotropy =     3.7977

     16  H    Isotropic =    28.9036   Anisotropy =     4.9405

     17  H    Isotropic =    29.1646   Anisotropy =     6.6271

     18  H    Isotropic =    31.8021   Anisotropy =    13.0079

     19  H    Isotropic =    28.9806   Anisotropy =     7.9134

     20  H    Isotropic =    29.4090   Anisotropy =     9.6666

     21  H    Isotropic =    29.8708   Anisotropy =     8.2562

  Exact polarizability:  92.427   0.313  88.719   3.087  -0.342  79.761
 Approx polarizability:  92.700  -0.537  94.006   3.279   0.068  88.255

                      1                      2                      3
                      A                      A                      A
 Frequencies --     43.6131                55.4384               123.3862
 Red. masses --      2.4661                 2.7244                 1.6886
 Frc consts  --      0.0028                 0.0049                 0.0151
 IR Inten    --      1.2891                 0.7296                 2.2705

                      4                      5                      6
                      A                      A                      A
 Frequencies --    151.5125               205.9526               242.9231
 Red. masses --      1.7119                 1.4505                 1.3040
 Frc consts  --      0.0232                 0.0362                 0.0453
 IR Inten    --      1.5199                 0.5964                 2.5227

                      7                      8                      9
                      A                      A                      A
 Frequencies --    256.1332               319.8088               389.7602
 Red. masses --      2.2393                 2.0917                 1.9856
 Frc consts  --      0.0866                 0.1260                 0.1777
 IR Inten    --      0.4760                11.2552                 0.8398

                     10                     11                     12
                      A                      A                      A
 Frequencies --    434.7058               534.6937               740.1313
 Red. masses --      2.3670                 2.3991                 1.3009
 Frc consts  --      0.2635                 0.4041                 0.4199
 IR Inten    --     19.4995                13.5181                34.0049

                     13                     14                     15
                      A                      A                      A
 Frequencies --    776.4031               813.2484               877.5108
 Red. masses --      1.5305                 1.3789                 2.3662
 Frc consts  --      0.5436                 0.5373                 1.0735
 IR Inten    --    243.9075                54.9778                16.1413

                     16                     17                     18
                      A                      A                      A
 Frequencies --    881.4956               966.6997              1011.9345
 Red. masses --      1.6234                 2.1559                 1.6541
 Frc consts  --      0.7432                 1.1870                 0.9980
 IR Inten    --      4.9198                 0.6779                14.2471

                     19                     20                     21
                      A                      A                      A
 Frequencies --   1040.4772              1073.0120              1102.8661
 Red. masses --      1.8340                 1.9201                 1.6802
 Frc consts  --      1.1698                 1.3025                 1.2041
 IR Inten    --      8.1271                 9.9290                42.2986

                     22                     23                     24
                      A                      A                      A
 Frequencies --   1142.0683              1148.1262              1173.4918
 Red. masses --      1.3589                 1.9718                 2.1185
 Frc consts  --      1.0443                 1.5314                 1.7189
 IR Inten    --      5.0072                24.3330                48.4008

                     25                     26                     27
                      A                      A                      A
 Frequencies --   1180.2686              1217.0491              1282.9689
 Red. masses --      2.1756                 1.7905                 1.4540
 Frc consts  --      1.7856                 1.5626                 1.4100
 IR Inten    --     24.8913                 4.9947                 3.1300

                     28                     29                     30
                      A                      A                      A
 Frequencies --   1289.6474              1336.0368              1355.7961
 Red. masses --      1.3110                 1.1327                 1.2028
 Frc consts  --      1.2847                 1.1912                 1.3026
 IR Inten    --      4.4422                 2.8626                 9.6359

                     31                     32                     33
                      A                      A                      A
 Frequencies --   1402.2096              1409.2080              1461.3459
 Red. masses --      1.3479                 1.3528                 1.1463
 Frc consts  --      1.5614                 1.5828                 1.4423
 IR Inten    --     31.9120                12.9703                 1.4396

                     34                     35                     36
                      A                      A                      A
 Frequencies --   1464.6420              1483.3267              1487.2341
 Red. masses --      1.1800                 1.0876                 1.2092
 Frc consts  --      1.4914                 1.4099                 1.5758
 IR Inten    --      0.8255                 0.7277                16.4800

                     37                     38                     39
                      A                      A                      A
 Frequencies --   1490.9843              1495.8244              1498.0959
 Red. masses --      1.2014                 1.0595                 1.0762
 Frc consts  --      1.5735                 1.3967                 1.4230
 IR Inten    --      2.5934                 6.0995                 5.9768

                     40                     41                     42
                      A                      A                      A
 Frequencies --   1506.9514              1508.5894              1523.8331
 Red. masses --      1.1102                 1.0886                 1.0595
 Frc consts  --      1.4854                 1.4596                 1.4495
 IR Inten    --      3.2765                 5.3097                 9.7835

                     43                     44                     45
                      A                      A                      A
 Frequencies --   1527.1018              2930.8859              2950.3691
 Red. masses --      1.0540                 1.0725                 1.0597
 Frc consts  --      1.4481                 5.4279                 5.4347
 IR Inten    --     14.5581               145.2717               141.1612

                     46                     47                     48
                      A                      A                      A
 Frequencies --   2972.6285              3019.1044              3030.6068
 Red. masses --      1.0549                 1.0667                 1.0644
 Frc consts  --      5.4920                 5.7287                 5.7599
 IR Inten    --    115.4071                59.9484                55.5293

                     49                     50                     51
                      A                      A                      A
 Frequencies --   3050.9801              3060.0245              3069.7751
 Red. masses --      1.0896                 1.0789                 1.0879
 Frc consts  --      5.9757                 5.9525                 6.0405
 IR Inten    --     31.4796                69.6021                37.0078

                     52                     53                     54
                      A                      A                      A
 Frequencies --   3074.2877              3087.3979              3104.8769
 Red. masses --      1.0786                 1.1013                 1.1024
 Frc consts  --      6.0062                 6.1850                 6.2614
 IR Inten    --     42.8276               129.2711                55.8018

                     55                     56                     57
                      A                      A                      A
 Frequencies --   3115.4923              3502.6996              3525.1621
 Red. masses --      1.1030                 1.0740                 1.0748
 Frc consts  --      6.3078                 7.7634                 7.8692
 IR Inten    --     47.6392                 1.3049                 0.1613

 - Thermochemistry -
 -------------------
 Temperature   298.150 Kelvin.  Pressure   1.00000 Atm.
 Atom     1 has atomic number  6 and mass  12.00000

 Molecular mass:   102.11570 amu.
 Principal axes and moments of inertia in atomic units:
                           1         2         3
     Eigenvalues --   382.984921527.960761708.23575
           X            0.99999   0.00478   0.00218
           Y           -0.00480   0.99997   0.00663
           Z           -0.00214  -0.00664   0.99998
 This molecule is an asymmetric top.
 Rotational symmetry number  1.
 Rotational temperatures (Kelvin)      0.22615     0.05669     0.05070
 Rotational constants (GHZ):           4.71230     1.18114     1.05649
 Zero-point vibrational energy     513920.5 (Joules/Mol)
                                  122.82995 (Kcal/Mol)
 Warning -- explicit consideration of  11 degrees of freedom as
           vibrations may cause significant error
 Vibrational temperatures:     62.75    79.76   177.53   217.99   296.32
          (Kelvin)            349.51   368.52   460.13   560.78   625.44
                              769.30  1064.88  1117.07  1170.08  1262.54
                             1268.28  1390.87  1455.95  1497.01  1543.82
                             1586.78  1643.18  1651.90  1688.39  1698.14
                             1751.06  1845.91  1855.51  1922.26  1950.69
                             2017.47  2027.54  2102.55  2107.29  2134.18
                             2139.80  2145.19  2152.16  2155.43  2168.17
                             2170.52  2192.46  2197.16  4216.89  4244.92
                             4276.95  4343.82  4360.37  4389.68  4402.69
                             4416.72  4423.21  4442.08  4467.23  4482.50
                             5039.60  5071.92

 Zero-point correction=                           0.195742 (Hartree/Particle)
 Thermal correction to Energy=                    0.205038
 Thermal correction to Enthalpy=                  0.205982
 Thermal correction to Gibbs Free Energy=         0.160960
 Sum of electronic and zero-point Energies=           -308.270821
 Sum of electronic and thermal Energies=              -308.261525
 Sum of electronic and thermal Enthalpies=            -308.260581
 Sum of electronic and thermal Free Energies=         -308.305602

                     E (Thermal)             CV                S
                      KCal/Mol        Cal/Mol-Kelvin    Cal/Mol-Kelvin
 Total                  128.663             32.364             94.755
 Electronic               0.000              0.000              0.000
 Translational            0.889              2.981             39.780
 Rotational               0.889              2.981             28.393
 Vibrational            126.886             26.402             26.582
 Vibration     1          0.595              1.980              5.088
 Vibration     2          0.596              1.975              4.613
 Vibration     3          0.610              1.930              3.047
 Vibration     4          0.619              1.901              2.653
 Vibration     5          0.640              1.831              2.079
 Vibration     6          0.659              1.774              1.781
 Vibration     7          0.666              1.752              1.688
 Vibration     8          0.706              1.636              1.311
 Vibration     9          0.758              1.492              1.001
 Vibration    10          0.795              1.395              0.843
 Vibration    11          0.890              1.173              0.577

 Optimization completed.
    -- Stationary point found.
 Normal termination of Gaussian 16 at Thu Jul 11 19:19:59 2024.
 Gaussian 16:  EM64L-G16RevA.03 25-Dec-2016

 ----------------------------------------------------------------------
 # TD(NStates=10, Root=1) B3LYP/6-31G** SCRF=(Solvent=water) volume pop
 =NPA density=current Geom=AllCheck Guess=Read
 ----------------------------------------------------------------------

 Structure from the checkpoint file:  "UQUPIHHYKUEXQD-UHFFFAOYSA-N_conf_0_2.chk"
 ----------------------------------
 UQUPIHHYKUEXQD-UHFFFAOYSA-N_conf_0
 ----------------------------------
 Charge =  0 Multiplicity = 1

                         Standard orientation:
 ---------------------------------------------------------------------
 Center     Atomic      Atomic             Coordinates (Angstroms)
 Number     Number       Type             X           Y           Z
 ---------------------------------------------------------------------
      1          6           0       -2.483649    1.206806    0.075184
      2          7           0       -2.031510   -0.011457   -0.595131
      3          6           0       -1.408359   -0.985509    0.310156
      4          6           0        0.038114   -0.623057    0.674310
      5          6           0        0.987591   -0.634171   -0.536194
      6          7           0        2.393308   -0.308995   -0.273394
      7          6           0        2.632570    1.076238    0.129925
      8          1           0       -3.042140    1.826177   -0.632917
      9          1           0       -1.625561    1.794014    0.417916
     10          1           0       -3.128764    1.020433    0.952751
     11          1           0       -2.838226   -0.453079   -1.028017
     12          1           0       -1.990834   -1.114107    1.241712
     13          1           0       -1.412082   -1.957177   -0.199488
     14          1           0        0.395351   -1.347482    1.418995
     15          1           0        0.060905    0.356829    1.165807
     16          1           0        0.614560    0.065355   -1.292985
     17          1           0        0.956085   -1.632471   -0.994503
     18          1           0        2.744324   -0.929189    0.453964
     19          1           0        2.107242    1.400696    1.043392
     20          1           0        3.704617    1.225008    0.293879
     21          1           0        2.324328    1.746316   -0.681117
 ---------------------------------------------------------------------

 SCF Done:  E(RB3LYP) =  -308.466562588     A.U. after    1 cycles

 Excitation energies and oscillator strengths:

 Excited State   1:      Singlet-A      6.9150 eV  179.30 nm  f=0.0076  <S**2>=0.000
      28 -> 31        -0.19436
      29 -> 30         0.65462
      29 -> 31         0.12890
 This state for optimization and/or second-order correction.
 Total Energy, E(TD-HF/TD-DFT) =  -308.212442827
 Copying the excited state density for this state as the 1-particle RhoCI density.

 Excited State   2:      Singlet-A      7.1004 eV  174.61 nm  f=0.0130  <S**2>=0.000
      28 -> 30         0.49133
      29 -> 31        -0.48130

 Excited State   3:      Singlet-A      7.5898 eV  163.36 nm  f=0.0035  <S**2>=0.000
      28 -> 30         0.47621
      29 -> 30        -0.13969
      29 -> 31         0.48218

 Excited State   4:      Singlet-A      7.6768 eV  161.51 nm  f=0.0148  <S**2>=0.000
      28 -> 31         0.42465
      29 -> 30         0.20037
      29 -> 32         0.50999

 Excited State   5:      Singlet-A      7.8644 eV  157.65 nm  f=0.0173  <S**2>=0.000
      28 -> 30         0.13944
      28 -> 31         0.47446
      28 -> 32         0.17302
      29 -> 32        -0.42049
      29 -> 33         0.16797

 Excited State   6:      Singlet-A      8.2010 eV  151.18 nm  f=0.0443  <S**2>=0.000
      28 -> 31        -0.17481
      28 -> 32         0.51408
      29 -> 32         0.16235
      29 -> 33         0.36686
      29 -> 34         0.16200

 Excited State   7:      Singlet-A      8.2977 eV  149.42 nm  f=0.0039  <S**2>=0.000
      28 -> 32        -0.37714
      29 -> 33         0.54882
      29 -> 35        -0.12152

 Excited State   8:      Singlet-A      8.6173 eV  143.88 nm  f=0.0555  <S**2>=0.000
      28 -> 33         0.49930
      29 -> 34        -0.42786
      29 -> 35         0.15903
      29 -> 36         0.11251

 Excited State   9:      Singlet-A      8.7040 eV  142.45 nm  f=0.0813  <S**2>=0.000
      28 -> 32        -0.17575
      28 -> 33         0.41247
      28 -> 36         0.10306
      29 -> 34         0.49251
      29 -> 36         0.10427
      29 -> 38         0.10032

 Excited State  10:      Singlet-A      8.9272 eV  138.88 nm  f=0.0687  <S**2>=0.000
      28 -> 33        -0.10600
      28 -> 34         0.42561
      28 -> 36         0.17228
      29 -> 35         0.10962
      29 -> 36         0.46969
      29 -> 38        -0.12657

 The electronic state is 1-A.
 Alpha  occ. eigenvalues --  -14.31451 -14.31188 -10.20174 -10.19657 -10.19625
 Alpha  occ. eigenvalues --  -10.19561 -10.17202  -0.89556  -0.88721  -0.75474
 Alpha  occ. eigenvalues --   -0.68808  -0.65806  -0.61355  -0.56730  -0.49586
 Alpha  occ. eigenvalues --   -0.47673  -0.45089  -0.43786  -0.42154  -0.40974
 Alpha  occ. eigenvalues --   -0.39649  -0.37967  -0.36202  -0.35815  -0.34609
 Alpha  occ. eigenvalues --   -0.32999  -0.32510  -0.22492  -0.21003
 Alpha virt. eigenvalues --    0.08265   0.09663   0.11341   0.13108   0.14449
 Alpha virt. eigenvalues --    0.15262   0.15527   0.16226   0.17366   0.18360
 Alpha virt. eigenvalues --    0.18668   0.19846   0.20787   0.21213   0.22904

 Mulliken charges:
               1
     1  C   -0.146760
     2  N   -0.373151
     3  C   -0.048919
     4  C   -0.109512
     5  C   -0.026256
     6  N   -0.288663
     7  C   -0.156802
     8  H    0.066370
     9  H    0.061567
    10  H    0.089367
    11  H    0.158077
    12  H    0.106458
    13  H    0.063588
    14  H    0.015887
    15  H    0.030294
    16  H    0.087952
    17  H    0.060475
    18  H    0.128189
    19  H    0.096565
    20  H    0.069791
    21  H    0.115483
 Sum of Mulliken charges =  -0.00000

 Dipole moment (field-independent basis, Debye):
    X=             -0.0174    Y=             -0.0622    Z=              0.4027  Tot=              0.4079
 Quadrupole moment (field-independent basis, Debye-Ang):
   XX=            -45.6116   YY=            -48.3646   ZZ=            -49.8463
   XY=              2.4330   XZ=             -0.3871   YZ=              0.2950

 Summary of Natural Population Analysis:

                                       Natural Population
                Natural  -----------------------------------------------
    Atom  No    Charge         Core      Valence    Rydberg      Total
 -----------------------------------------------------------------------
      C    1   -0.52293      1.99948     4.50582    0.01763     6.52293
      N    2   -0.53487      1.99949     5.52143    0.01395     7.53487
      C    3   -0.28648      1.99931     4.27002    0.01715     6.28648
      C    4   -0.48958      1.99928     4.47527    0.01503     6.48958
      C    5   -0.31165      1.99933     4.29093    0.02140     6.31165
      N    6   -0.37820      1.99946     5.36562    0.01311     7.37820
      C    7   -0.53831      1.99946     4.52204    0.01681     6.53831
      H    8    0.19872      0.00000     0.78569    0.01559     0.80128
      H    9    0.18545      0.00000     0.79074    0.02381     0.81455
      H   10    0.20899      0.00000     0.77942    0.01159     0.79101
      H   11    0.31093      0.00000     0.64377    0.04530     0.68907
      H   12    0.23819      0.00000     0.74954    0.01226     0.76181
      H   13    0.20349      0.00000     0.77611    0.02040     0.79651
      H   14    0.18027      0.00000     0.78804    0.03170     0.81973
      H   15    0.18298      0.00000     0.78277    0.03425     0.81702
      H   16    0.22046      0.00000     0.76117    0.01837     0.77954
      H   17    0.20706      0.00000     0.76967    0.02327     0.79294
      H   18    0.28502      0.00000     0.64935    0.06563     0.71498
      H   19    0.21338      0.00000     0.76525    0.02137     0.78662
      H   20    0.19897      0.00000     0.78108    0.01995     0.80103
      H   21    0.22808      0.00000     0.76026    0.01166     0.77192
 =======================================================================
   * Total *   -0.00000     13.99581    43.53397    0.47022    58.00000

 1\1\GINC-CN33\SP\RB3LYP TD-FC\6-31G(d,p)\C5H14N2\QDUEZ\11-Jul-2024\0\\
 # TD(NStates=10, Root=1) B3LYP/6-31G** SCRF=(Solvent=water) volume pop
 =NPA density=current Geom=AllCheck Guess=Read\\UQUPIHHYKUEXQD-UHFFFAOY
 SA-N_conf_0\\0,1\C,0,-2.1543500779,1.5117723084,-0.4338352689\N,0,-1.7
 972630215,0.2040759755,-0.981863989\C,0,-1.5403262657,-0.8146276235,0.
 0442281709\C,0,-0.1522825289,-0.680238966,0.6857398489\C,0,0.998674771
 8,-0.9080307232,-0.3094288165\N,0,2.3607113046,-0.8085291577,0.2251726
 784\C,0,2.7520642879,0.535696685,0.6478836599\H,0,-2.4485338601,2.1800

 Normal termination of Gaussian 16 at Thu Jul 11 19:41:48 2024.
