 Gaussian 16, Revision A.03,

 -------------------------------------------------------
 # opt=CalcFc B3LYP/6-31G** SCRF=(Solvent=water) scf=xqc
 -------------------------------------------------------

 ----------------------------------
 UQUPIHHYKUEXQD-UHFFFAOYSA-N_conf_2
 ----------------------------------
 Symbolic Z-matrix:
 Charge =  0 Multiplicity = 1

 SCF Done:  E(RB3LYP) =  -308.465648864     A.U. after   11 cycles
 SCF Done:  E(RB3LYP) =  -308.467966420     A.U. after    9 cycles
 SCF Done:  E(RB3LYP) =  -308.468059778     A.U. after    9 cycles
 SCF Done:  E(RB3LYP) =  -308.468060569     A.U. after    7 cycles
 Optimization completed.
    -- Stationary point found.
 Normal termination of Gaussian 16 at Thu Jul 11 19:04:38 2024.

 ----------------------------------------------------------------------
 # freq B3LYP/6-31G** SCRF=(Solvent=water) volume NMR pop=NPA density=c
 urrent Geom=AllCheck Guess=Read
 ----------------------------------------------------------------------

 Structure from the checkpoint file:  "UQUPIHHYKUEXQD-UHFFFAOYSA-N_conf_2_1.chk"
 ----------------------------------
 UQUPIHHYKUEXQD-UHFFFAOYSA-N_conf_2
 ----------------------------------
 Charge =  0 Multiplicity = 1

 SCF Done:  E(RB3LYP) =  -308.468060569     A.U. after    1 cycles

      1  C    Isotropic =   154.3685   Anisotropy =    54.7031

      2  N    Isotropic =   222.5282   Anisotropy =    43.0648

      3  C    Isotropic =   139.9218   Anisotropy =    49.7602

      4  C    Isotropic =   159.9172   Anisotropy =    26.8579

      5  C    Isotropic =   140.9836   Anisotropy =    47.1266

      6  N    Isotropic =   227.5669   Anisotropy =    53.8860

      7  C    Isotropic =   156.2707   Anisotropy =    50.6797

      8  H    Isotropic =    29.6237   Anisotropy =     8.6157

      9  H    Isotropic =    29.2438   Anisotropy =     9.8045

     10  H    Isotropic =    29.4367   Anisotropy =     8.8635

     11  H    Isotropic =    31.7354   Anisotropy =    11.7107

     12  H    Isotropic =    29.2991   Anisotropy =     4.9642

     13  H    Isotropic =    29.5175   Anisotropy =     4.5477

     14  H    Isotropic =    30.3899   Anisotropy =     5.6559

     15  H    Isotropic =    30.0550   Anisotropy =     4.9518

     16  H    Isotropic =    29.0531   Anisotropy =     6.0703

     17  H    Isotropic =    29.2939   Anisotropy =     5.2746

     18  H    Isotropic =    31.1105   Anisotropy =    15.3274

     19  H    Isotropic =    29.3765   Anisotropy =     9.5346

     20  H    Isotropic =    29.6992   Anisotropy =     8.9317

     21  H    Isotropic =    29.3606   Anisotropy =     7.4664

  Exact polarizability:  99.596   0.992  84.445   0.491  -0.425  78.117
 Approx polarizability:  95.396   0.488  92.130   0.807  -0.583  86.877

                      1                      2                      3
                      A                      A                      A
 Frequencies --     50.9560                75.0876               123.8206
 Red. masses --      2.1615                 2.2988                 2.6640
 Frc consts  --      0.0033                 0.0076                 0.0241
 IR Inten    --      1.2411                 0.3611                 0.5885

                      4                      5                      6
                      A                      A                      A
 Frequencies --    137.6439               143.7662               230.6382
 Red. masses --      2.1731                 1.6699                 1.4009
 Frc consts  --      0.0243                 0.0203                 0.0439
 IR Inten    --      2.2191                 2.1587                 0.7884

                      7                      8                      9
                      A                      A                      A
 Frequencies --    256.3482               319.0503               358.0862
 Red. masses --      1.1577                 2.5538                 2.9316
 Frc consts  --      0.0448                 0.1532                 0.2215
 IR Inten    --      2.6041                 5.5043                 5.3631

                     10                     11                     12
                      A                      A                      A
 Frequencies --    414.6451               514.0026               769.5934
 Red. masses --      2.7015                 2.6781                 1.1056
 Frc consts  --      0.2737                 0.4169                 0.3858
 IR Inten    --      5.2752                31.2114                 7.7976

                     13                     14                     15
                      A                      A                      A
 Frequencies --    799.5345               808.4042               888.4033
 Red. masses --      1.3995                 1.3121                 1.2557
 Frc consts  --      0.5271                 0.5052                 0.5839
 IR Inten    --     56.1055               242.4124                 4.6219

                     16                     17                     18
                      A                      A                      A
 Frequencies --    926.6070               986.5627              1035.7799
 Red. masses --      2.5277                 1.9019                 2.0821
 Frc consts  --      1.2787                 1.0907                 1.3161
 IR Inten    --      5.2817                 2.8325                16.4432

                     19                     20                     21
                      A                      A                      A
 Frequencies --   1049.9695              1099.7550              1119.4152
 Red. masses --      2.5112                 1.5141                 1.4685
 Frc consts  --      1.6311                 1.0789                 1.0842
 IR Inten    --      4.6749                 8.6936                 6.6356

                     22                     23                     24
                      A                      A                      A
 Frequencies --   1138.0015              1158.2643              1167.9953
 Red. masses --      2.5606                 1.6282                 2.3675
 Frc consts  --      1.9538                 1.2870                 1.9029
 IR Inten    --     28.3568                45.2312                35.4065

                     25                     26                     27
                      A                      A                      A
 Frequencies --   1184.9600              1233.4480              1255.3083
 Red. masses --      1.8972                 1.8731                 1.3557
 Frc consts  --      1.5696                 1.6790                 1.2587
 IR Inten    --     17.0802                 3.5279                 3.4484

                     28                     29                     30
                      A                      A                      A
 Frequencies --   1306.7087              1324.3231              1337.2133
 Red. masses --      1.3901                 1.1254                 1.1171
 Frc consts  --      1.3985                 1.1630                 1.1769
 IR Inten    --      1.0953                 2.8775                 4.6154

                     31                     32                     33
                      A                      A                      A
 Frequencies --   1400.1004              1423.4798              1464.5266
 Red. masses --      1.3258                 1.4784                 1.1790
 Frc consts  --      1.5313                 1.7650                 1.4899
 IR Inten    --      3.3895                44.8125                 0.9994

                     34                     35                     36
                      A                      A                      A
 Frequencies --   1465.9444              1487.0792              1491.5837
 Red. masses --      1.1770                 1.2121                 1.1375
 Frc consts  --      1.4903                 1.5793                 1.4910
 IR Inten    --      0.7045                21.3210                 3.3904

                     37                     38                     39
                      A                      A                      A
 Frequencies --   1493.3051              1495.7264              1500.3097
 Red. masses --      1.0887                 1.0822                 1.0969
 Frc consts  --      1.4305                 1.4265                 1.4547
 IR Inten    --      6.2486                 5.3473                 2.4312

                     40                     41                     42
                      A                      A                      A
 Frequencies --   1512.7424              1522.2033              1524.1571
 Red. masses --      1.0935                 1.0538                 1.0653
 Frc consts  --      1.4744                 1.4387                 1.4580
 IR Inten    --      5.7131                13.0307                11.4000

                     43                     44                     45
                      A                      A                      A
 Frequencies --   1531.5869              2918.6395              2927.2181
 Red. masses --      1.0914                 1.0725                 1.0723
 Frc consts  --      1.5084                 5.3829                 5.4134
 IR Inten    --      0.6574                37.6604               217.6706

                     46                     47                     48
                      A                      A                      A
 Frequencies --   2951.7801              2952.6462              3026.1407
 Red. masses --      1.0595                 1.0589                 1.0764
 Frc consts  --      5.4390                 5.4389                 5.8077
 IR Inten    --    107.2947               176.1122                 9.5233

                     49                     50                     51
                      A                      A                      A
 Frequencies --   3033.6957              3057.3960              3061.5501
 Red. masses --      1.0725                 1.0870                 1.0757
 Frc consts  --      5.8156                 5.9865                 5.9404
 IR Inten    --     72.1988                51.4753                68.0005

                     52                     53                     54
                      A                      A                      A
 Frequencies --   3073.6318              3083.7288              3111.0369
 Red. masses --      1.0742                 1.1015                 1.1019
 Frc consts  --      5.9789                 6.1715                 6.2833
 IR Inten    --     59.4223               106.6722                51.9709

                     55                     56                     57
                      A                      A                      A
 Frequencies --   3115.9297              3498.2677              3521.2428
 Red. masses --      1.1031                 1.0740                 1.0747
 Frc consts  --      6.3102                 7.7442                 7.8514
 IR Inten    --     50.7706                 0.8092                 0.4313

 - Thermochemistry -
 -------------------
 Temperature   298.150 Kelvin.  Pressure   1.00000 Atm.
 Atom     1 has atomic number  6 and mass  12.00000

 Molecular mass:   102.11570 amu.
 Principal axes and moments of inertia in atomic units:
                           1         2         3
     Eigenvalues --   196.006762152.832352232.86634
           X            0.99998   0.00694  -0.00038
           Y           -0.00694   0.99997  -0.00307
           Z            0.00035   0.00307   1.00000
 This molecule is an asymmetric top.
 Rotational symmetry number  1.
 Rotational temperatures (Kelvin)      0.44189     0.04023     0.03879
 Rotational constants (GHZ):           9.20755     0.83831     0.80826
 Zero-point vibrational energy     513556.5 (Joules/Mol)
                                  122.74295 (Kcal/Mol)
 Warning -- explicit consideration of  11 degrees of freedom as
           vibrations may cause significant error
 Vibrational temperatures:     73.31   108.03   178.15   198.04   206.85
          (Kelvin)            331.84   368.83   459.04   515.21   596.58
                              739.54  1107.27  1150.35  1163.11  1278.21
                             1333.18  1419.44  1490.26  1510.67  1582.30
                             1610.59  1637.33  1666.48  1680.48  1704.89
                             1774.66  1806.11  1880.06  1905.41  1923.95
                             2014.43  2048.07  2107.13  2109.17  2139.58
                             2146.06  2148.53  2152.02  2158.61  2176.50
                             2190.11  2192.92  2203.61  4199.27  4211.61
                             4246.95  4248.20  4353.94  4364.81  4398.91
                             4404.89  4422.27  4436.80  4476.09  4483.13
                             5033.23  5066.28

 Zero-point correction=                           0.195603 (Hartree/Particle)
 Thermal correction to Energy=                    0.205014
 Thermal correction to Enthalpy=                  0.205958
 Thermal correction to Gibbs Free Energy=         0.160882
 Sum of electronic and zero-point Energies=           -308.272457
 Sum of electronic and thermal Energies=              -308.263046
 Sum of electronic and thermal Enthalpies=            -308.262102
 Sum of electronic and thermal Free Energies=         -308.307179

                     E (Thermal)             CV                S
                      KCal/Mol        Cal/Mol-Kelvin    Cal/Mol-Kelvin
 Total                  128.648             32.358             94.871
 Electronic               0.000              0.000              0.000
 Translational            0.889              2.981             39.780
 Rotational               0.889              2.981             28.334
 Vibrational            126.871             26.396             26.757
 Vibration     1          0.595              1.977              4.780
 Vibration     2          0.599              1.966              4.015
 Vibration     3          0.610              1.929              3.040
 Vibration     4          0.614              1.916              2.836
 Vibration     5          0.616              1.909              2.753
 Vibration     6          0.652              1.794              1.874
 Vibration     7          0.666              1.752              1.687
 Vibration     8          0.705              1.637              1.315
 Vibration     9          0.733              1.559              1.130
 Vibration    10          0.778              1.438              0.910
 Vibration    11          0.869              1.219              0.624

 Optimization completed.
    -- Stationary point found.
 Normal termination of Gaussian 16 at Thu Jul 11 19:19:43 2024.
 Gaussian 16:  EM64L-G16RevA.03 25-Dec-2016

 ----------------------------------------------------------------------
 # TD(NStates=10, Root=1) B3LYP/6-31G** SCRF=(Solvent=water) volume pop
 =NPA density=current Geom=AllCheck Guess=Read
 ----------------------------------------------------------------------

 Structure from the checkpoint file:  "UQUPIHHYKUEXQD-UHFFFAOYSA-N_conf_2_2.chk"
 ----------------------------------
 UQUPIHHYKUEXQD-UHFFFAOYSA-N_conf_2
 ----------------------------------
 Charge =  0 Multiplicity = 1

                         Standard orientation:
 ---------------------------------------------------------------------
 Center     Atomic      Atomic             Coordinates (Angstroms)
 Number     Number       Type             X           Y           Z
 ---------------------------------------------------------------------
      1          6           0        3.611127   -0.077332    0.172072
      2          7           0        2.302251   -0.462757   -0.351699
      3          6           0        1.218439    0.369117    0.174371
      4          6           0       -0.142377   -0.088114   -0.353175
      5          6           0       -1.294225    0.784210    0.157661
      6          7           0       -2.595067    0.371322   -0.382386
      7          6           0       -3.154465   -0.811871    0.271561
      8          1           0        3.872156    0.922935   -0.192532
      9          1           0        4.373079   -0.774177   -0.189827
     10          1           0        3.666834   -0.050944    1.275097
     11          1           0        2.120684   -1.428475   -0.083291
     12          1           0        1.200331    0.386037    1.281561
     13          1           0        1.407059    1.404576   -0.142286
     14          1           0       -0.134581   -0.069029   -1.449071
     15          1           0       -0.305786   -1.132725   -0.055791
     16          1           0       -1.119704    1.819815   -0.158221
     17          1           0       -1.285680    0.784903    1.264636
     18          1           0       -3.246746    1.140275   -0.248924
     19          1           0       -4.172654   -0.980183   -0.091561
     20          1           0       -3.190159   -0.738781    1.373462
     21          1           0       -2.566110   -1.700237    0.020403
 ---------------------------------------------------------------------

 SCF Done:  E(RB3LYP) =  -308.468060569     A.U. after    1 cycles

 Excitation energies and oscillator strengths:

 Excited State   1:      Singlet-A      7.1489 eV  173.43 nm  f=0.0160  <S**2>=0.000
      28 -> 30        -0.34540
      28 -> 31         0.23914
      29 -> 30         0.52825
      29 -> 31        -0.17913
 This state for optimization and/or second-order correction.
 Total Energy, E(TD-HF/TD-DFT) =  -308.205343398
 Copying the excited state density for this state as the 1-particle RhoCI density.

 Excited State   2:      Singlet-A      7.1998 eV  172.21 nm  f=0.0183  <S**2>=0.000
      28 -> 30         0.25561
      28 -> 31         0.31522
      29 -> 30         0.20820
      29 -> 31         0.53087

 Excited State   3:      Singlet-A      7.7723 eV  159.52 nm  f=0.0119  <S**2>=0.000
      28 -> 30         0.34854
      28 -> 31        -0.38697
      29 -> 30         0.40421
      29 -> 33         0.20459

 Excited State   4:      Singlet-A      7.7951 eV  159.05 nm  f=0.0187  <S**2>=0.000
      28 -> 30         0.41789
      28 -> 31         0.33048
      28 -> 32         0.11429
      28 -> 33         0.10907
      29 -> 31        -0.36732
      29 -> 32        -0.21919

 Excited State   5:      Singlet-A      8.0420 eV  154.17 nm  f=0.0308  <S**2>=0.000
      28 -> 31         0.14098
      28 -> 34        -0.13176
      29 -> 31        -0.13674
      29 -> 32         0.63896
      29 -> 33        -0.11357

 Excited State   6:      Singlet-A      8.1946 eV  151.30 nm  f=0.0319  <S**2>=0.000
      28 -> 31        -0.14836
      28 -> 32         0.62946
      29 -> 34        -0.21178
      29 -> 35        -0.10722

 Excited State   7:      Singlet-A      8.3621 eV  148.27 nm  f=0.0316  <S**2>=0.000
      28 -> 31         0.19549
      28 -> 32         0.10764
      29 -> 33         0.64868

 Excited State   8:      Singlet-A      8.5292 eV  145.36 nm  f=0.0019  <S**2>=0.000
      28 -> 33         0.67306
      29 -> 31         0.12969

 Excited State   9:      Singlet-A      8.7354 eV  141.93 nm  f=0.0150  <S**2>=0.000
      28 -> 32         0.19754
      28 -> 34         0.13369
      28 -> 37         0.11942
      29 -> 34         0.62659

 Excited State  10:      Singlet-A      8.8924 eV  139.43 nm  f=0.2301  <S**2>=0.000
      28 -> 34         0.58138
      28 -> 35        -0.10382
      29 -> 32         0.10995
      29 -> 35         0.29450
      29 -> 37         0.15671

 The electronic state is 1-A.
 Alpha  occ. eigenvalues --  -14.31481 -14.31436 -10.20228 -10.20140 -10.19698
 Alpha  occ. eigenvalues --  -10.19663 -10.17516  -0.89722  -0.89091  -0.76118
 Alpha  occ. eigenvalues --   -0.68904  -0.65264  -0.61170  -0.57602  -0.48876
 Alpha  occ. eigenvalues --   -0.48329  -0.44623  -0.44229  -0.42937  -0.41679
 Alpha  occ. eigenvalues --   -0.40344  -0.37435  -0.36671  -0.35482  -0.34464
 Alpha  occ. eigenvalues --   -0.33140  -0.32267  -0.22499  -0.21773
 Alpha virt. eigenvalues --    0.08832   0.09224   0.11336   0.12319   0.13813
 Alpha virt. eigenvalues --    0.14824   0.16170   0.16549   0.16574   0.18178
 Alpha virt. eigenvalues --    0.18669   0.19730   0.20183   0.20998   0.22657

 Mulliken charges:
               1
     1  C   -0.174892
     2  N   -0.519104
     3  C   -0.026953
     4  C   -0.182883
     5  C   -0.019952
     6  N   -0.101094
     7  C   -0.169725
     8  H    0.114616
     9  H    0.110684
    10  H    0.091714
    11  H    0.249791
    12  H    0.074036
    13  H    0.099011
    14  H    0.104437
    15  H    0.085217
    16  H   -0.015555
    17  H    0.093539
    18  H   -0.080668
    19  H    0.020996
    20  H    0.125586
    21  H    0.121199
 Sum of Mulliken charges =  -0.00000

 Dipole moment (field-independent basis, Debye):
    X=              1.3252    Y=             -1.9192    Z=              1.6124  Tot=              2.8354
 Quadrupole moment (field-independent basis, Debye-Ang):
   XX=            -52.1325   YY=            -48.2624   ZZ=            -49.2270
   XY=              3.7512   XZ=              1.2213   YZ=             -0.5392

 Summary of Natural Population Analysis:

                                       Natural Population
                Natural  -----------------------------------------------
    Atom  No    Charge         Core      Valence    Rydberg      Total
 -----------------------------------------------------------------------
      C    1   -0.48768      1.99951     4.47664    0.01154     6.48768
      N    2   -0.68452      1.99957     5.67036    0.01460     7.68452
      C    3   -0.27134      1.99935     4.25572    0.01628     6.27134
      C    4   -0.49172      1.99931     4.47562    0.01679     6.49172
      C    5   -0.34157      1.99931     4.32055    0.02171     6.34157
      N    6   -0.21551      1.99935     5.20051    0.01566     7.21551
      C    7   -0.58047      1.99945     4.55843    0.02259     6.58047
      H    8    0.22265      0.00000     0.77533    0.00202     0.77735
      H    9    0.23205      0.00000     0.76625    0.00170     0.76795
      H   10    0.20027      0.00000     0.79636    0.00337     0.79973
      H   11    0.38654      0.00000     0.60791    0.00556     0.61346
      H   12    0.19662      0.00000     0.79678    0.00660     0.80338
      H   13    0.22242      0.00000     0.77211    0.00547     0.77758
      H   14    0.24171      0.00000     0.75187    0.00642     0.75829
      H   15    0.22277      0.00000     0.76414    0.01310     0.77723
      H   16    0.14476      0.00000     0.81123    0.04401     0.85524
      H   17    0.23455      0.00000     0.73715    0.02830     0.76545
      H   18    0.12367      0.00000     0.76991    0.10643     0.87633
      H   19    0.16207      0.00000     0.80370    0.03423     0.83793
      H   20    0.24944      0.00000     0.72894    0.02162     0.75056
      H   21    0.23332      0.00000     0.75353    0.01315     0.76668
 =======================================================================
   * Total *    0.00000     13.99583    43.59302    0.41115    58.00000

 1\1\GINC-CN33\SP\RB3LYP TD-FC\6-31G(d,p)\C5H14N2\QDUEZ\11-Jul-2024\0\\
 # TD(NStates=10, Root=1) B3LYP/6-31G** SCRF=(Solvent=water) volume pop
 =NPA density=current Geom=AllCheck Guess=Read\\UQUPIHHYKUEXQD-UHFFFAOY
 SA-N_conf_2\\0,1\C,0,3.5835440884,0.0402756158,-0.185730094\N,0,2.2833
 570256,0.4328055261,0.3541588333\C,0,1.1883756076,-0.3919060967,-0.159
 923011\C,0,-0.1632726644,0.0727321733,0.3844513305\C,0,-1.3263428284,-
 0.7920427154,-0.1136325076\N,0,-2.6181370517,-0.3721203192,0.442468677
 5\C,0,-3.1782456059,0.8152411629,-0.2032633085\H,0,3.8429396772,-0.962

 Normal termination of Gaussian 16 at Thu Jul 11 19:39:28 2024.
