 Gaussian 16, Revision A.03,

 -------------------------------------------------------
 # opt=CalcFc B3LYP/6-31G** SCRF=(Solvent=water) scf=xqc
 -------------------------------------------------------

 ----------------------------------
 DGRGLKZMKWPMOH-UHFFFAOYSA-N_conf_1
 ----------------------------------
 Symbolic Z-matrix:
 Charge =  0 Multiplicity = 1

 SCF Done:  E(RB3LYP) =  -382.298949295     A.U. after   12 cycles
 SCF Done:  E(RB3LYP) =  -382.302813961     A.U. after   10 cycles
 SCF Done:  E(RB3LYP) =  -382.303140578     A.U. after   10 cycles
 SCF Done:  E(RB3LYP) =  -382.303182806     A.U. after   10 cycles
 SCF Done:  E(RB3LYP) =  -382.303199416     A.U. after    9 cycles
 SCF Done:  E(RB3LYP) =  -382.303125681     A.U. after    9 cycles
 SCF Done:  E(RB3LYP) =  -382.303204824     A.U. after    9 cycles
 SCF Done:  E(RB3LYP) =  -382.303209986     A.U. after    9 cycles
 SCF Done:  E(RB3LYP) =  -382.303210977     A.U. after    8 cycles
 SCF Done:  E(RB3LYP) =  -382.303211080     A.U. after    7 cycles
 SCF Done:  E(RB3LYP) =  -382.303211053     A.U. after    7 cycles
 Optimization completed on the basis of negligible forces.
    -- Stationary point found.
 Normal termination of Gaussian 16 at Thu Jul 11 17:49:55 2024.

 ----------------------------------------------------------------------
 # freq B3LYP/6-31G** SCRF=(Solvent=water) volume NMR pop=NPA density=c
 urrent Geom=AllCheck Guess=Read
 ----------------------------------------------------------------------

 Structure from the checkpoint file:  "DGRGLKZMKWPMOH-UHFFFAOYSA-N_conf_1_1.chk"
 ----------------------------------
 DGRGLKZMKWPMOH-UHFFFAOYSA-N_conf_1
 ----------------------------------
 Charge =  0 Multiplicity = 1

 SCF Done:  E(RB3LYP) =  -382.303211053     A.U. after    1 cycles

      1  C    Isotropic =   170.5506   Anisotropy =    35.9287

      2  C    Isotropic =    67.2087   Anisotropy =   163.6785

      3  C    Isotropic =    77.0559   Anisotropy =   130.9640

      4  C    Isotropic =    81.8012   Anisotropy =   125.5302

      5  C    Isotropic =    63.5658   Anisotropy =   139.3942

      6  N    Isotropic =   208.4092   Anisotropy =    40.6154

      7  C    Isotropic =    60.8403   Anisotropy =   141.2053

      8  N    Isotropic =   207.0036   Anisotropy =    41.6472

      9  C    Isotropic =    81.3964   Anisotropy =   116.0364

     10  H    Isotropic =    30.1023   Anisotropy =     7.7454

     11  H    Isotropic =    29.4353   Anisotropy =     8.8036

     12  H    Isotropic =    29.4958   Anisotropy =     8.3519

     13  H    Isotropic =    25.2505   Anisotropy =     5.2154

     14  H    Isotropic =    25.2418   Anisotropy =     5.4180

     15  H    Isotropic =    28.9627   Anisotropy =    12.8545

     16  H    Isotropic =    29.2692   Anisotropy =    10.9530

     17  H    Isotropic =    29.0866   Anisotropy =    10.7468

     18  H    Isotropic =    28.8958   Anisotropy =    12.7592

     19  H    Isotropic =    25.2000   Anisotropy =     7.8065

  Exact polarizability: 160.169  -1.579 133.865   0.012  -0.737  48.387
 Approx polarizability: 186.126  -3.997 162.081  -0.287  -2.393  58.888

                      1                      2                      3
                      A                      A                      A
 Frequencies --     41.4780               145.6250               211.4440
 Red. masses --      1.0430                 3.3036                 1.6260
 Frc consts  --      0.0011                 0.0413                 0.0428
 IR Inten    --      0.2555                 2.8752                35.6042

                      4                      5                      6
                      A                      A                      A
 Frequencies --    227.6363               289.5795               309.4846
 Red. masses --      1.6009                 2.8108                 3.5011
 Frc consts  --      0.0489                 0.1389                 0.1976
 IR Inten    --     19.1242                 0.4582                 0.1294

                      7                      8                      9
                      A                      A                      A
 Frequencies --    352.1030               443.2909               447.6924
 Red. masses --      3.6184                 1.0531                 3.6150
 Frc consts  --      0.2643                 0.1219                 0.4269
 IR Inten    --      3.8611                21.9438                 6.6533

                     10                     11                     12
                      A                      A                      A
 Frequencies --    450.5895               501.1600               578.8854
 Red. masses --      3.2260                 3.6116                 5.2389
 Frc consts  --      0.3859                 0.5344                 1.0344
 IR Inten    --     12.7518                 2.5833                12.3287

                     13                     14                     15
                      A                      A                      A
 Frequencies --    592.4865               704.2064               708.4001
 Red. masses --      3.1584                 2.8953                 2.6199
 Frc consts  --      0.6532                 0.8459                 0.7746
 IR Inten    --     32.5985               128.4939               161.9858

                     16                     17                     18
                      A                      A                      A
 Frequencies --    758.3035               782.2774               797.4994
 Red. masses --      2.2498                 2.1950                 1.7198
 Frc consts  --      0.7622                 0.7914                 0.6444
 IR Inten    --    108.2132               360.8557                67.1040

                     19                     20                     21
                      A                      A                      A
 Frequencies --    825.2189               869.0823               918.6470
 Red. masses --      1.5581                 1.3641                 1.2785
 Frc consts  --      0.6252                 0.6070                 0.6357
 IR Inten    --    189.5540                28.7651                 2.3841

                     22                     23                     24
                      A                      A                      A
 Frequencies --    961.3942              1021.0770              1060.3416
 Red. masses --      2.7310                 1.5712                 1.4793
 Frc consts  --      1.4872                 0.9651                 0.9799
 IR Inten    --     12.0004                 1.9900                 7.4231

                     25                     26                     27
                      A                      A                      A
 Frequencies --   1098.1580              1130.4185              1179.6985
 Red. masses --      1.6063                 1.3637                 1.3140
 Frc consts  --      1.1414                 1.0267                 1.0774
 IR Inten    --      6.3532                 6.5762                 5.8059

                     28                     29                     30
                      A                      A                      A
 Frequencies --   1193.9207              1281.9672              1319.5619
 Red. masses --      1.6665                 2.8554                 3.9730
 Frc consts  --      1.3996                 2.7649                 4.0759
 IR Inten    --     11.8385                56.8851               140.5179

                     31                     32                     33
                      A                      A                      A
 Frequencies --   1338.8984              1387.2512              1421.0630
 Red. masses --      1.3644                 4.1727                 1.2524
 Frc consts  --      1.4410                 4.7313                 1.4901
 IR Inten    --      2.3088                 0.8426                 3.4148

                     34                     35                     36
                      A                      A                      A
 Frequencies --   1471.4467              1488.8214              1506.5122
 Red. masses --      2.3297                 1.0493                 1.2683
 Frc consts  --      2.9719                 1.3704                 1.6960
 IR Inten    --      6.0900                 5.9896                21.6363

                     37                     38                     39
                      A                      A                      A
 Frequencies --   1558.7152              1623.3697              1643.5311
 Red. masses --      3.0961                 1.5469                 3.4086
 Frc consts  --      4.4319                 2.4018                 5.4248
 IR Inten    --    198.7122                45.4834                45.3868

                     40                     41                     42
                      A                      A                      A
 Frequencies --   1660.7716              1674.2924              3031.1488
 Red. masses --      1.1220                 3.6962                 1.0385
 Frc consts  --      1.8233                 6.1048                 5.6219
 IR Inten    --     45.4774                70.8507                72.3875

                     43                     44                     45
                      A                      A                      A
 Frequencies --   3083.2851              3118.7392              3158.5426
 Red. masses --      1.1001                 1.1009                 1.0900
 Frc consts  --      6.1616                 6.3090                 6.4068
 IR Inten    --     37.7458                34.9510                39.1969

                     46                     47                     48
                      A                      A                      A
 Frequencies --   3167.0719              3185.7154              3512.0747
 Red. masses --      1.0871                 1.0942                 1.0511
 Frc consts  --      6.4244                 6.5428                 7.6389
 IR Inten    --     25.2461                34.4429                 9.9505

                     49                     50                     51
                      A                      A                      A
 Frequencies --   3518.6658              3617.2797              3623.2681
 Red. masses --      1.0502                 1.0939                 1.0950
 Frc consts  --      7.6608                 8.4333                 8.4698
 IR Inten    --     13.2279                28.7084                13.2573

 - Thermochemistry -
 -------------------
 Temperature   298.150 Kelvin.  Pressure   1.00000 Atm.
 Atom     1 has atomic number  6 and mass  12.00000

 Molecular mass:   122.08440 amu.
 Principal axes and moments of inertia in atomic units:
                           1         2         3
     Eigenvalues --   587.417531390.727271961.26579
           X            0.99996   0.00892   0.00113
           Y           -0.00893   0.99992   0.00912
           Z           -0.00105  -0.00913   0.99996
 This molecule is an asymmetric top.
 Rotational symmetry number  1.
 Warning -- assumption of classical behavior for rotation
           may cause significant error
 Rotational temperatures (Kelvin)      0.14745     0.06228     0.04416
 Rotational constants (GHZ):           3.07233     1.29770     0.92019
 Zero-point vibrational energy     424627.0 (Joules/Mol)
                                  101.48829 (Kcal/Mol)
 Warning -- explicit consideration of  13 degrees of freedom as
           vibrations may cause significant error
 Vibrational temperatures:     59.68   209.52   304.22   327.52   416.64
          (Kelvin)            445.28   506.60   637.80   644.13   648.30
                              721.06   832.89   852.46  1013.20  1019.23
                             1091.03  1125.52  1147.42  1187.31  1250.42
                             1321.73  1383.23  1469.10  1525.60  1580.00
                             1626.42  1697.32  1717.79  1844.46  1898.56
                             1926.38  1995.95  2044.59  2117.08  2142.08
                             2167.54  2242.64  2335.67  2364.67  2389.48
                             2408.93  4361.15  4436.16  4487.17  4544.44
                             4556.71  4583.53  5053.09  5062.58  5204.46
                             5213.07

 Zero-point correction=                           0.161732 (Hartree/Particle)
 Thermal correction to Energy=                    0.170610
 Thermal correction to Enthalpy=                  0.171555
 Thermal correction to Gibbs Free Energy=         0.128107
 Sum of electronic and zero-point Energies=           -382.141479
 Sum of electronic and thermal Energies=              -382.132601
 Sum of electronic and thermal Enthalpies=            -382.131657
 Sum of electronic and thermal Free Energies=         -382.175104

                     E (Thermal)             CV                S
                      KCal/Mol        Cal/Mol-Kelvin    Cal/Mol-Kelvin
 Total                  107.060             34.347             91.442
 Electronic               0.000              0.000              0.000
 Translational            0.889              2.981             40.313
 Rotational               0.889              2.981             28.862
 Vibrational            105.282             28.386             22.268
 Vibration     1          0.594              1.981              5.187
 Vibration     2          0.617              1.907              2.729
 Vibration     3          0.643              1.823              2.031
 Vibration     4          0.651              1.799              1.898
 Vibration     5          0.686              1.693              1.476
 Vibration     6          0.699              1.656              1.365
 Vibration     7          0.729              1.571              1.157
 Vibration     8          0.803              1.376              0.816
 Vibration     9          0.807              1.366              0.803
 Vibration    10          0.809              1.360              0.794
 Vibration    11          0.857              1.247              0.655
 Vibration    12          0.935              1.077              0.487
 Vibration    13          0.950              1.048              0.463

 Optimization completed on the basis of negligible forces.
    -- Stationary point found.
 Normal termination of Gaussian 16 at Thu Jul 11 18:05:53 2024.
 Gaussian 16:  EM64L-G16RevA.03 25-Dec-2016

 ----------------------------------------------------------------------
 # TD(NStates=10, Root=1) B3LYP/6-31G** SCRF=(Solvent=water) volume pop
 =NPA density=current Geom=AllCheck Guess=Read
 ----------------------------------------------------------------------

 Structure from the checkpoint file:  "DGRGLKZMKWPMOH-UHFFFAOYSA-N_conf_1_2.chk"
 ----------------------------------
 DGRGLKZMKWPMOH-UHFFFAOYSA-N_conf_1
 ----------------------------------
 Charge =  0 Multiplicity = 1

                         Standard orientation:
 ---------------------------------------------------------------------
 Center     Atomic      Atomic             Coordinates (Angstroms)
 Number     Number       Type             X           Y           Z
 ---------------------------------------------------------------------
      1          6           0        3.085633    0.356518   -0.020790
      2          6           0        1.611593    0.021598   -0.000993
      3          6           0        1.163997   -1.301503    0.028308
      4          6           0       -0.204544   -1.593936    0.022619
      5          6           0       -1.159462   -0.576569    0.000225
      6          7           0       -2.546979   -0.827165    0.044115
      7          6           0       -0.719845    0.771067   -0.001613
      8          7           0       -1.691931    1.787847   -0.052604
      9          6           0        0.649781    1.044397   -0.009918
     10          1           0        3.697161   -0.538503    0.124297
     11          1           0        3.384424    0.810061   -0.973982
     12          1           0        3.347787    1.072730    0.766395
     13          1           0        1.883461   -2.115890    0.044119
     14          1           0       -0.537426   -2.629370    0.029515
     15          1           0       -2.773768   -1.799571   -0.132500
     16          1           0       -3.064843   -0.241270   -0.605296
     17          1           0       -2.483823    1.597911    0.555012
     18          1           0       -1.315719    2.705454    0.157223
     19          1           0        0.972194    2.084242   -0.012395
 ---------------------------------------------------------------------

 SCF Done:  E(RB3LYP) =  -382.303211053     A.U. after    1 cycles

 Excitation energies and oscillator strengths:

 Excited State   1:      Singlet-A      4.6706 eV  265.45 nm  f=0.1615  <S**2>=0.000
      32 -> 35         0.23727
      33 -> 34         0.66351
 This state for optimization and/or second-order correction.
 Total Energy, E(TD-HF/TD-DFT) =  -382.131568060
 Copying the excited state density for this state as the 1-particle RhoCI density.

 Excited State   2:      Singlet-A      5.3565 eV  231.47 nm  f=0.2110  <S**2>=0.000
      32 -> 34        -0.22486
      33 -> 35         0.66582

 Excited State   3:      Singlet-A      5.9620 eV  207.96 nm  f=0.2993  <S**2>=0.000
      32 -> 34         0.65483
      33 -> 35         0.21866

 Excited State   4:      Singlet-A      6.1388 eV  201.97 nm  f=0.8854  <S**2>=0.000
      31 -> 34        -0.11359
      32 -> 35         0.64987
      33 -> 34        -0.22865

 Excited State   5:      Singlet-A      6.3665 eV  194.74 nm  f=0.0092  <S**2>=0.000
      33 -> 36         0.69915

 Excited State   6:      Singlet-A      7.1362 eV  173.74 nm  f=0.0030  <S**2>=0.000
      33 -> 37         0.68091
      33 -> 38        -0.14764

 Excited State   7:      Singlet-A      7.2156 eV  171.83 nm  f=0.0026  <S**2>=0.000
      31 -> 34         0.11385
      32 -> 36         0.42338
      33 -> 37         0.11302
      33 -> 38         0.53100

 Excited State   8:      Singlet-A      7.4079 eV  167.37 nm  f=0.0474  <S**2>=0.000
      30 -> 35        -0.11157
      31 -> 34         0.47377
      32 -> 36         0.34228
      33 -> 38        -0.35353

 Excited State   9:      Singlet-A      7.4750 eV  165.86 nm  f=0.0828  <S**2>=0.000
      30 -> 35        -0.11195
      31 -> 34         0.46445
      32 -> 36        -0.43944
      33 -> 38         0.24748

 Excited State  10:      Singlet-A      7.8549 eV  157.84 nm  f=0.1788  <S**2>=0.000
      30 -> 34         0.65993
      31 -> 35         0.20695

 The electronic state is 1-A.
 Alpha  occ. eigenvalues --  -14.33369 -14.33318 -10.21724 -10.21509 -10.18418
 Alpha  occ. eigenvalues --  -10.17798 -10.17612 -10.17499 -10.17324  -0.92726
 Alpha  occ. eigenvalues --   -0.88331  -0.82705  -0.74604  -0.71945  -0.66726
 Alpha  occ. eigenvalues --   -0.60753  -0.57297  -0.51509  -0.50611  -0.47925
 Alpha  occ. eigenvalues --   -0.46354  -0.43296  -0.41559  -0.41410  -0.41057
 Alpha  occ. eigenvalues --   -0.38022  -0.37211  -0.34558  -0.33465  -0.30868
 Alpha  occ. eigenvalues --   -0.29162  -0.22015  -0.18750
 Alpha virt. eigenvalues --    0.01139   0.02565   0.08410   0.10902   0.11606
 Alpha virt. eigenvalues --    0.13306   0.14804   0.15415   0.16229   0.17130
 Alpha virt. eigenvalues --    0.18855   0.20273   0.21183   0.24663   0.26815

 Mulliken charges:
               1
     1  C   -0.385548
     2  C    0.114917
     3  C   -0.151967
     4  C   -0.194370
     5  C    0.218939
     6  N   -0.642685
     7  C    0.226366
     8  N   -0.645629
     9  C   -0.234379
    10  H    0.109862
    11  H    0.116975
    12  H    0.111702
    13  H    0.076936
    14  H    0.064422
    15  H    0.289268
    16  H    0.292621
    17  H    0.290372
    18  H    0.286974
    19  H    0.055226
 Sum of Mulliken charges =  -0.00000

 Dipole moment (field-independent basis, Debye):
    X=             -3.5375    Y=              1.0635    Z=             -0.0448  Tot=              3.6941
 Quadrupole moment (field-independent basis, Debye-Ang):
   XX=            -41.8472   YY=            -45.6097   ZZ=            -57.7402
   XY=             -0.0427   XZ=              1.0980   YZ=              3.2248

 Summary of Natural Population Analysis:

                                       Natural Population
                Natural  -----------------------------------------------
    Atom  No    Charge         Core      Valence    Rydberg      Total
 -----------------------------------------------------------------------
      C    1   -0.70260      1.99940     4.69602    0.00718     6.70260
      C    2   -0.01644      1.99905     4.00132    0.01607     6.01644
      C    3   -0.22690      1.99905     4.21209    0.01576     6.22690
      C    4   -0.39732      1.99907     4.37782    0.02044     6.39732
      C    5    0.12468      1.99891     3.85781    0.01860     5.87532
      N    6   -0.78799      1.99951     5.77603    0.01244     7.78799
      C    7    0.12900      1.99892     3.85301    0.01907     5.87100
      N    8   -0.79105      1.99951     5.77906    0.01248     7.79105
      C    9   -0.40830      1.99900     4.38930    0.02000     6.40830
      H   10    0.23953      0.00000     0.75913    0.00134     0.76047
      H   11    0.24096      0.00000     0.75596    0.00308     0.75904
      H   12    0.23829      0.00000     0.75826    0.00345     0.76171
      H   13    0.23276      0.00000     0.76557    0.00168     0.76724
      H   14    0.22864      0.00000     0.76968    0.00168     0.77136
      H   15    0.41956      0.00000     0.57743    0.00301     0.58044
      H   16    0.41784      0.00000     0.57866    0.00350     0.58216
      H   17    0.41671      0.00000     0.57975    0.00354     0.58329
      H   18    0.41833      0.00000     0.57845    0.00323     0.58167
      H   19    0.22432      0.00000     0.77386    0.00182     0.77568
 =======================================================================
   * Total *   -0.00000     17.99243    47.83920    0.16837    66.00000

 1\1\GINC-CN34\SP\RB3LYP TD-FC\6-31G(d,p)\C7H10N2\QDUEZ\11-Jul-2024\0\\
 # TD(NStates=10, Root=1) B3LYP/6-31G** SCRF=(Solvent=water) volume pop
 =NPA density=current Geom=AllCheck Guess=Read\\DGRGLKZMKWPMOH-UHFFFAOY
 SA-N_conf_1\\0,1\C,0,2.8454622056,-0.4351130333,0.546953384\C,0,1.4159
 063676,-0.0452129608,0.2474415482\C,0,1.0501407747,1.287705304,0.04411
 36164\C,0,-0.2821607729,1.6332142983,-0.2089660161\C,0,-1.279289416,0.
 6593651688,-0.2779532762\N,0,-2.6240526925,0.9599265204,-0.5799506229\
 C,0,-0.9180051219,-0.6999048113,-0.1011833056\N,0,-1.9368518112,-1.670

 Normal termination of Gaussian 16 at Thu Jul 11 18:28:47 2024.
