 Gaussian 16, Revision A.03,

 -------------------------------------------------------
 # opt=CalcFc B3LYP/6-31G** SCRF=(Solvent=water) scf=xqc
 -------------------------------------------------------

 ----------------------------------
 DGRGLKZMKWPMOH-UHFFFAOYSA-N_conf_0
 ----------------------------------
 Symbolic Z-matrix:
 Charge =  0 Multiplicity = 1

 SCF Done:  E(RB3LYP) =  -382.299023760     A.U. after   12 cycles
 SCF Done:  E(RB3LYP) =  -382.302860987     A.U. after   10 cycles
 SCF Done:  E(RB3LYP) =  -382.303171535     A.U. after   10 cycles
 SCF Done:  E(RB3LYP) =  -382.303200758     A.U. after    9 cycles
 SCF Done:  E(RB3LYP) =  -382.303205962     A.U. after    9 cycles
 SCF Done:  E(RB3LYP) =  -382.303210532     A.U. after    9 cycles
 SCF Done:  E(RB3LYP) =  -382.303211030     A.U. after    7 cycles
 SCF Done:  E(RB3LYP) =  -382.303211061     A.U. after    6 cycles
 Optimization completed.
    -- Stationary point found.
 Normal termination of Gaussian 16 at Thu Jul 11 17:42:35 2024.

 ----------------------------------------------------------------------
 # freq B3LYP/6-31G** SCRF=(Solvent=water) volume NMR pop=NPA density=c
 urrent Geom=AllCheck Guess=Read
 ----------------------------------------------------------------------

 Structure from the checkpoint file:  "DGRGLKZMKWPMOH-UHFFFAOYSA-N_conf_0_1.chk"
 ----------------------------------
 DGRGLKZMKWPMOH-UHFFFAOYSA-N_conf_0
 ----------------------------------
 Charge =  0 Multiplicity = 1

 SCF Done:  E(RB3LYP) =  -382.303211061     A.U. after    1 cycles

      1  C    Isotropic =   170.5509   Anisotropy =    35.9295

      2  C    Isotropic =    67.2083   Anisotropy =   163.6790

      3  C    Isotropic =    77.0555   Anisotropy =   130.9563

      4  C    Isotropic =    81.8011   Anisotropy =   125.5290

      5  C    Isotropic =    63.5659   Anisotropy =   139.3932

      6  N    Isotropic =   208.4092   Anisotropy =    40.6160

      7  C    Isotropic =    60.8397   Anisotropy =   141.2066

      8  N    Isotropic =   207.0037   Anisotropy =    41.6474

      9  C    Isotropic =    81.3977   Anisotropy =   116.0441

     10  H    Isotropic =    29.4356   Anisotropy =     8.8023

     11  H    Isotropic =    29.4951   Anisotropy =     8.3538

     12  H    Isotropic =    30.1028   Anisotropy =     7.7450

     13  H    Isotropic =    25.2506   Anisotropy =     5.2149

     14  H    Isotropic =    25.2418   Anisotropy =     5.4179

     15  H    Isotropic =    28.9627   Anisotropy =    12.8543

     16  H    Isotropic =    29.2693   Anisotropy =    10.9532

     17  H    Isotropic =    28.8957   Anisotropy =    12.7593

     18  H    Isotropic =    29.0866   Anisotropy =    10.7468

     19  H    Isotropic =    25.1999   Anisotropy =     7.8069

  Exact polarizability: 160.169  -1.578 133.865  -0.013   0.736  48.387
 Approx polarizability: 186.125  -3.995 162.081   0.287   2.392  58.888

                      1                      2                      3
                      A                      A                      A
 Frequencies --     41.3327               145.6321               211.4382
 Red. masses --      1.0431                 3.3032                 1.6257
 Frc consts  --      0.0010                 0.0413                 0.0428
 IR Inten    --      0.2545                 2.8752                35.6096

                      4                      5                      6
                      A                      A                      A
 Frequencies --    227.6302               289.5790               309.4844
 Red. masses --      1.6012                 2.8108                 3.5011
 Frc consts  --      0.0489                 0.1389                 0.1976
 IR Inten    --     19.1178                 0.4587                 0.1295

                      7                      8                      9
                      A                      A                      A
 Frequencies --    352.1106               443.2839               447.6865
 Red. masses --      3.6182                 1.0531                 3.6144
 Frc consts  --      0.2643                 0.1219                 0.4268
 IR Inten    --      3.8606                21.9508                 6.6541

                     10                     11                     12
                      A                      A                      A
 Frequencies --    450.5912               501.1639               578.8838
 Red. masses --      3.2264                 3.6116                 5.2390
 Frc consts  --      0.3859                 0.5345                 1.0344
 IR Inten    --     12.7491                 2.5847                12.3340

                     13                     14                     15
                      A                      A                      A
 Frequencies --    592.4906               704.2051               708.4065
 Red. masses --      3.1583                 2.8949                 2.6204
 Frc consts  --      0.6532                 0.8458                 0.7748
 IR Inten    --     32.5868               128.5167               161.9650

                     16                     17                     18
                      A                      A                      A
 Frequencies --    758.3034               782.2697               797.4972
 Red. masses --      2.2496                 2.1958                 1.7193
 Frc consts  --      0.7621                 0.7917                 0.6442
 IR Inten    --    108.1949               360.7560                67.1565

                     19                     20                     21
                      A                      A                      A
 Frequencies --    825.2263               869.0835               918.6432
 Red. masses --      1.5582                 1.3641                 1.2785
 Frc consts  --      0.6252                 0.6070                 0.6357
 IR Inten    --    189.6199                28.7610                 2.3844

                     22                     23                     24
                      A                      A                      A
 Frequencies --    961.3950              1021.0736              1060.3441
 Red. masses --      2.7309                 1.5712                 1.4793
 Frc consts  --      1.4872                 0.9651                 0.9799
 IR Inten    --     12.0030                 1.9914                 7.3932

                     25                     26                     27
                      A                      A                      A
 Frequencies --   1098.1612              1130.4190              1179.6979
 Red. masses --      1.6063                 1.3637                 1.3141
 Frc consts  --      1.1413                 1.0267                 1.0775
 IR Inten    --      6.3553                 6.5766                 5.8049

                     28                     29                     30
                      A                      A                      A
 Frequencies --   1193.9186              1281.9637              1319.5598
 Red. masses --      1.6664                 2.8554                 3.9728
 Frc consts  --      1.3995                 2.7648                 4.0757
 IR Inten    --     11.8397                56.8979               140.5115

                     31                     32                     33
                      A                      A                      A
 Frequencies --   1338.8977              1387.2558              1421.0630
 Red. masses --      1.3643                 4.1729                 1.2524
 Frc consts  --      1.4410                 4.7315                 1.4901
 IR Inten    --      2.3116                 0.8431                 3.4146

                     34                     35                     36
                      A                      A                      A
 Frequencies --   1471.4504              1488.8120              1506.5135
 Red. masses --      2.3303                 1.0492                 1.2683
 Frc consts  --      2.9728                 1.3702                 1.6960
 IR Inten    --      6.0933                 5.9896                21.6336

                     37                     38                     39
                      A                      A                      A
 Frequencies --   1558.7146              1623.3695              1643.5344
 Red. masses --      3.0961                 1.5469                 3.4083
 Frc consts  --      4.4320                 2.4018                 5.4243
 IR Inten    --    198.7211                45.4754                45.3931

                     40                     41                     42
                      A                      A                      A
 Frequencies --   1660.7714              1674.2925              3031.1577
 Red. masses --      1.1220                 3.6962                 1.0385
 Frc consts  --      1.8233                 6.1048                 5.6219
 IR Inten    --     45.4724                70.8507                72.3893

                     43                     44                     45
                      A                      A                      A
 Frequencies --   3083.2751              3118.7427              3158.5403
 Red. masses --      1.1001                 1.1009                 1.0900
 Frc consts  --      6.1616                 6.3090                 6.4067
 IR Inten    --     37.7462                34.9517                39.1963

                     46                     47                     48
                      A                      A                      A
 Frequencies --   3167.0726              3185.7167              3512.0744
 Red. masses --      1.0871                 1.0942                 1.0511
 Frc consts  --      6.4244                 6.5428                 7.6389
 IR Inten    --     25.2476                34.4430                 9.9499

                     49                     50                     51
                      A                      A                      A
 Frequencies --   3518.6722              3617.2735              3623.2749
 Red. masses --      1.0502                 1.0939                 1.0950
 Frc consts  --      7.6608                 8.4333                 8.4698
 IR Inten    --     13.2287                28.6871                13.2776

 - Thermochemistry -
 -------------------
 Temperature   298.150 Kelvin.  Pressure   1.00000 Atm.
 Atom     1 has atomic number  6 and mass  12.00000

 Molecular mass:   122.08440 amu.
 Principal axes and moments of inertia in atomic units:
                           1         2         3
     Eigenvalues --   587.417921390.726611961.26587
           X            0.99996   0.00892  -0.00113
           Y           -0.00893   0.99992  -0.00912
           Z            0.00105   0.00913   0.99996
 This molecule is an asymmetric top.
 Rotational symmetry number  1.
 Warning -- assumption of classical behavior for rotation
           may cause significant error
 Rotational temperatures (Kelvin)      0.14745     0.06228     0.04416
 Rotational constants (GHZ):           3.07233     1.29770     0.92019
 Zero-point vibrational energy     424626.2 (Joules/Mol)
                                  101.48809 (Kcal/Mol)
 Warning -- explicit consideration of  13 degrees of freedom as
           vibrations may cause significant error
 Vibrational temperatures:     59.47   209.53   304.21   327.51   416.64
          (Kelvin)            445.28   506.61   637.79   644.12   648.30
                              721.06   832.88   852.46  1013.19  1019.24
                             1091.03  1125.51  1147.42  1187.32  1250.42
                             1321.72  1383.23  1469.10  1525.60  1580.01
                             1626.42  1697.32  1717.78  1844.46  1898.55
                             1926.38  1995.95  2044.59  2117.09  2142.07
                             2167.54  2242.64  2335.67  2364.68  2389.48
                             2408.93  4361.16  4436.15  4487.18  4544.44
                             4556.71  4583.54  5053.09  5062.58  5204.45
                             5213.08

 Zero-point correction=                           0.161732 (Hartree/Particle)
 Thermal correction to Energy=                    0.170610
 Thermal correction to Enthalpy=                  0.171555
 Thermal correction to Gibbs Free Energy=         0.128104
 Sum of electronic and zero-point Energies=           -382.141479
 Sum of electronic and thermal Energies=              -382.132601
 Sum of electronic and thermal Enthalpies=            -382.131657
 Sum of electronic and thermal Free Energies=         -382.175107

                     E (Thermal)             CV                S
                      KCal/Mol        Cal/Mol-Kelvin    Cal/Mol-Kelvin
 Total                  107.060             34.347             91.449
 Electronic               0.000              0.000              0.000
 Translational            0.889              2.981             40.313
 Rotational               0.889              2.981             28.862
 Vibrational            105.282             28.386             22.275
 Vibration     1          0.594              1.981              5.194
 Vibration     2          0.617              1.907              2.729
 Vibration     3          0.643              1.823              2.031
 Vibration     4          0.651              1.799              1.898
 Vibration     5          0.686              1.693              1.476
 Vibration     6          0.699              1.656              1.365
 Vibration     7          0.729              1.571              1.157
 Vibration     8          0.803              1.376              0.816
 Vibration     9          0.807              1.366              0.803
 Vibration    10          0.809              1.360              0.794
 Vibration    11          0.857              1.247              0.655
 Vibration    12          0.935              1.077              0.487
 Vibration    13          0.950              1.048              0.463

 Optimization completed.
    -- Stationary point found.
 Normal termination of Gaussian 16 at Thu Jul 11 17:58:06 2024.
 Gaussian 16:  EM64L-G16RevA.03 25-Dec-2016

 ----------------------------------------------------------------------
 # TD(NStates=10, Root=1) B3LYP/6-31G** SCRF=(Solvent=water) volume pop
 =NPA density=current Geom=AllCheck Guess=Read
 ----------------------------------------------------------------------

 Structure from the checkpoint file:  "DGRGLKZMKWPMOH-UHFFFAOYSA-N_conf_0_2.chk"
 ----------------------------------
 DGRGLKZMKWPMOH-UHFFFAOYSA-N_conf_0
 ----------------------------------
 Charge =  0 Multiplicity = 1

                         Standard orientation:
 ---------------------------------------------------------------------
 Center     Atomic      Atomic             Coordinates (Angstroms)
 Number     Number       Type             X           Y           Z
 ---------------------------------------------------------------------
      1          6           0        3.085634    0.356513    0.020746
      2          6           0        1.611592    0.021593    0.001034
      3          6           0        1.163995   -1.301507   -0.028271
      4          6           0       -0.204548   -1.593934   -0.022616
      5          6           0       -1.159463   -0.576566   -0.000241
      6          7           0       -2.546984   -0.827160   -0.044142
      7          6           0       -0.719842    0.771070    0.001612
      8          7           0       -1.691923    1.787850    0.052606
      9          6           0        0.649783    1.044396    0.009949
     10          1           0        3.384195    0.811327    0.973399
     11          1           0        3.347998    1.071671   -0.767334
     12          1           0        3.697177   -0.538709   -0.123017
     13          1           0        1.883458   -2.115894   -0.044059
     14          1           0       -0.537434   -2.629368   -0.029508
     15          1           0       -2.773764   -1.799572    0.132457
     16          1           0       -3.064849   -0.241292    0.605294
     17          1           0       -1.315711    2.705460   -0.157208
     18          1           0       -2.483818    1.597920   -0.555005
     19          1           0        0.972200    2.084240    0.012447
 ---------------------------------------------------------------------

 SCF Done:  E(RB3LYP) =  -382.303211061     A.U. after    1 cycles

 Excitation energies and oscillator strengths:

 Excited State   1:      Singlet-A      4.6706 eV  265.46 nm  f=0.1615  <S**2>=0.000
      32 -> 35         0.23725
      33 -> 34         0.66351
 This state for optimization and/or second-order correction.
 Total Energy, E(TD-HF/TD-DFT) =  -382.131569100
 Copying the excited state density for this state as the 1-particle RhoCI density.

 Excited State   2:      Singlet-A      5.3566 eV  231.46 nm  f=0.2110  <S**2>=0.000
      32 -> 34        -0.22493
      33 -> 35         0.66579

 Excited State   3:      Singlet-A      5.9619 eV  207.96 nm  f=0.2994  <S**2>=0.000
      32 -> 34         0.65479
      33 -> 35         0.21874

 Excited State   4:      Singlet-A      6.1389 eV  201.97 nm  f=0.8853  <S**2>=0.000
      31 -> 34        -0.11359
      32 -> 35         0.64987
      33 -> 34        -0.22863

 Excited State   5:      Singlet-A      6.3665 eV  194.74 nm  f=0.0092  <S**2>=0.000
      33 -> 36         0.69915

 Excited State   6:      Singlet-A      7.1362 eV  173.74 nm  f=0.0030  <S**2>=0.000
      33 -> 37         0.68092
      33 -> 38        -0.14762

 Excited State   7:      Singlet-A      7.2156 eV  171.83 nm  f=0.0026  <S**2>=0.000
      31 -> 34        -0.11386
      32 -> 36         0.42344
      33 -> 37         0.11302
      33 -> 38         0.53095

 Excited State   8:      Singlet-A      7.4078 eV  167.37 nm  f=0.0474  <S**2>=0.000
      30 -> 35        -0.11159
      31 -> 34         0.47394
      32 -> 36        -0.34208
      33 -> 38         0.35350

 Excited State   9:      Singlet-A      7.4750 eV  165.86 nm  f=0.0828  <S**2>=0.000
      30 -> 35        -0.11190
      31 -> 34         0.46429
      32 -> 36         0.43954
      33 -> 38        -0.24764

 Excited State  10:      Singlet-A      7.8549 eV  157.84 nm  f=0.1790  <S**2>=0.000
      30 -> 34         0.66002
      31 -> 35         0.20663

 The electronic state is 1-A.
 Alpha  occ. eigenvalues --  -14.33369 -14.33318 -10.21724 -10.21509 -10.18418
 Alpha  occ. eigenvalues --  -10.17798 -10.17612 -10.17499 -10.17324  -0.92726
 Alpha  occ. eigenvalues --   -0.88331  -0.82705  -0.74604  -0.71945  -0.66726
 Alpha  occ. eigenvalues --   -0.60753  -0.57297  -0.51509  -0.50611  -0.47925
 Alpha  occ. eigenvalues --   -0.46354  -0.43296  -0.41559  -0.41410  -0.41057
 Alpha  occ. eigenvalues --   -0.38022  -0.37211  -0.34558  -0.33465  -0.30868
 Alpha  occ. eigenvalues --   -0.29162  -0.22015  -0.18750
 Alpha virt. eigenvalues --    0.01138   0.02565   0.08410   0.10902   0.11606
 Alpha virt. eigenvalues --    0.13306   0.14804   0.15416   0.16228   0.17130
 Alpha virt. eigenvalues --    0.18854   0.20276   0.21181   0.24663   0.26815

 Mulliken charges:
               1
     1  C   -0.385549
     2  C    0.114916
     3  C   -0.151963
     4  C   -0.194372
     5  C    0.218935
     6  N   -0.642689
     7  C    0.226370
     8  N   -0.645620
     9  C   -0.234376
    10  H    0.116947
    11  H    0.111719
    12  H    0.109858
    13  H    0.076942
    14  H    0.064422
    15  H    0.289266
    16  H    0.292619
    17  H    0.286976
    18  H    0.290374
    19  H    0.055226
 Sum of Mulliken charges =  -0.00000

 Dipole moment (field-independent basis, Debye):
    X=             -3.5376    Y=              1.0636    Z=              0.0446  Tot=              3.6943
 Quadrupole moment (field-independent basis, Debye-Ang):
   XX=            -41.8481   YY=            -45.6092   ZZ=            -57.7403
   XY=             -0.0433   XZ=             -1.0986   YZ=             -3.2249

 Summary of Natural Population Analysis:

                                       Natural Population
                Natural  -----------------------------------------------
    Atom  No    Charge         Core      Valence    Rydberg      Total
 -----------------------------------------------------------------------
      C    1   -0.70260      1.99940     4.69602    0.00718     6.70260
      C    2   -0.01645      1.99905     4.00133    0.01607     6.01645
      C    3   -0.22688      1.99905     4.21207    0.01576     6.22688
      C    4   -0.39733      1.99907     4.37782    0.02044     6.39733
      C    5    0.12467      1.99891     3.85782    0.01860     5.87533
      N    6   -0.78800      1.99951     5.77604    0.01244     7.78800
      C    7    0.12901      1.99892     3.85300    0.01907     5.87099
      N    8   -0.79103      1.99951     5.77904    0.01248     7.79103
      C    9   -0.40831      1.99900     4.38930    0.02000     6.40831
      H   10    0.24094      0.00000     0.75598    0.00308     0.75906
      H   11    0.23829      0.00000     0.75825    0.00345     0.76171
      H   12    0.23953      0.00000     0.75913    0.00134     0.76047
      H   13    0.23276      0.00000     0.76557    0.00168     0.76724
      H   14    0.22864      0.00000     0.76968    0.00168     0.77136
      H   15    0.41956      0.00000     0.57743    0.00301     0.58044
      H   16    0.41783      0.00000     0.57866    0.00350     0.58217
      H   17    0.41833      0.00000     0.57844    0.00323     0.58167
      H   18    0.41671      0.00000     0.57975    0.00354     0.58329
      H   19    0.22432      0.00000     0.77386    0.00182     0.77568
 =======================================================================
   * Total *   -0.00000     17.99243    47.83919    0.16837    66.00000

 1\1\GINC-CN34\SP\RB3LYP TD-FC\6-31G(d,p)\C7H10N2\QDUEZ\11-Jul-2024\0\\
 # TD(NStates=10, Root=1) B3LYP/6-31G** SCRF=(Solvent=water) volume pop
 =NPA density=current Geom=AllCheck Guess=Read\\DGRGLKZMKWPMOH-UHFFFAOY
 SA-N_conf_0\\0,1\C,0,2.9120028635,0.3235854362,-0.0257677212\C,0,1.434
 3520627,0.0137120853,-0.1024933838\C,0,0.9629761873,-1.1460444622,-0.7
 226243161\C,0,-0.40700081,-1.428717056,-0.7640585757\C,0,-1.3405576443
 ,-0.557972076,-0.2004301562\N,0,-2.7320463804,-0.7806914458,-0.2644217
 373\C,0,-0.8785432248,0.6362385803,0.4076780301\N,0,-1.8273282385,1.49

 Normal termination of Gaussian 16 at Thu Jul 11 18:20:53 2024.
