 Gaussian 16, Revision A.03,

 -------------------------------------------------------
 # opt=CalcFc B3LYP/6-31G** SCRF=(Solvent=water) scf=xqc
 -------------------------------------------------------

 ----------------------------------
 WUPRYUDHUFLKFL-UHFFFAOYSA-N_conf_2
 ----------------------------------
 Symbolic Z-matrix:
 Charge =  0 Multiplicity = 1

 SCF Done:  E(RB3LYP) =  -955.528304813     A.U. after   12 cycles
 SCF Done:  E(RB3LYP) =  -955.528242713     A.U. after   12 cycles
 SCF Done:  E(RB3LYP) =  -955.528308175     A.U. after   12 cycles
 SCF Done:  E(RB3LYP) =  -955.528304513     A.U. after    8 cycles
 SCF Done:  E(RB3LYP) =  -955.528304629     A.U. after    8 cycles
 SCF Done:  E(RB3LYP) =  -955.528321863     A.U. after    8 cycles
 SCF Done:  E(RB3LYP) =  -955.528315705     A.U. after    8 cycles
 SCF Done:  E(RB3LYP) =  -955.525615623     A.U. after   11 cycles
 SCF Done:  E(RB3LYP) =  -955.527409766     A.U. after   10 cycles
 SCF Done:  E(RB3LYP) =  -955.525461016     A.U. after   10 cycles
 SCF Done:  E(RB3LYP) =  -955.526986714     A.U. after   10 cycles
 SCF Done:  E(RB3LYP) =  -955.527997542     A.U. after   10 cycles
 SCF Done:  E(RB3LYP) =  -955.524493181     A.U. after   11 cycles
 SCF Done:  E(RB3LYP) =  -955.528016098     A.U. after   11 cycles
 SCF Done:  E(RB3LYP) =  -955.528325089     A.U. after    4 cycles
 SCF Done:  E(RB3LYP) =  -955.527901340     A.U. after   10 cycles
 SCF Done:  E(RB3LYP) =  -955.528281802     A.U. after    9 cycles
 SCF Done:  E(RB3LYP) =  -955.528324022     A.U. after    8 cycles
 Optimization completed.
    -- Stationary point found.
 Normal termination of Gaussian 16 at Mon Jul 22 18:39:04 2024.

 ----------------------------------------------------------------------
 # freq B3LYP/6-31G** SCRF=(Solvent=water) volume NMR pop=NPA density=c
 urrent Geom=AllCheck Guess=Read
 ----------------------------------------------------------------------

 Structure from the checkpoint file:  "WUPRYUDHUFLKFL-UHFFFAOYSA-N_conf_2_1.chk"
 ----------------------------------
 WUPRYUDHUFLKFL-UHFFFAOYSA-N_conf_2
 ----------------------------------
 Charge =  0 Multiplicity = 1

 SCF Done:  E(RB3LYP) =  -955.528324022     A.U. after    1 cycles

      1  N    Isotropic =   199.8575   Anisotropy =    73.6927

      2  C    Isotropic =    51.5720   Anisotropy =   161.4229

      3  C    Isotropic =    81.4690   Anisotropy =   130.6639

      4  C    Isotropic =    72.5588   Anisotropy =   147.2923

      5  C    Isotropic =    52.3532   Anisotropy =   100.5180

      6  O    Isotropic =   183.4543   Anisotropy =    53.0682

      7  C    Isotropic =    35.3165   Anisotropy =   121.2781

      8  C    Isotropic =    92.6694   Anisotropy =   106.0866

      9  C    Isotropic =    35.3052   Anisotropy =   121.2780

     10  O    Isotropic =   183.4324   Anisotropy =    53.0777

     11  C    Isotropic =    52.3530   Anisotropy =   100.4971

     12  C    Isotropic =    72.5350   Anisotropy =   147.3135

     13  C    Isotropic =    81.4750   Anisotropy =   130.6470

     14  C    Isotropic =    51.5751   Anisotropy =   161.4196

     15  N    Isotropic =   199.8625   Anisotropy =    73.6821

     16  C    Isotropic =    81.4847   Anisotropy =   130.6609

     17  C    Isotropic =    72.5558   Anisotropy =   147.3551

     18  C    Isotropic =    90.9979   Anisotropy =   137.1683

     19  C    Isotropic =    66.6596   Anisotropy =   167.5881

     20  C    Isotropic =    91.0121   Anisotropy =   137.1642

     21  C    Isotropic =    72.5352   Anisotropy =   147.3803

     22  C    Isotropic =    81.4845   Anisotropy =   130.6610

     23  H    Isotropic =    28.5019   Anisotropy =    12.2310

     24  H    Isotropic =    28.5008   Anisotropy =    12.2332

     25  H    Isotropic =    25.0217   Anisotropy =     5.4956

     26  H    Isotropic =    24.7317   Anisotropy =     7.0882

     27  H    Isotropic =    25.0951   Anisotropy =     7.1779

     28  H    Isotropic =    24.7298   Anisotropy =     7.0725

     29  H    Isotropic =    25.0199   Anisotropy =     5.4892

     30  H    Isotropic =    28.5027   Anisotropy =    12.2306

     31  H    Isotropic =    28.5001   Anisotropy =    12.2361

     32  H    Isotropic =    25.0218   Anisotropy =     5.4961

     33  H    Isotropic =    24.7318   Anisotropy =     7.0962

     34  H    Isotropic =    25.7875   Anisotropy =    10.4695

     35  H    Isotropic =    24.6717   Anisotropy =     5.7362

     36  H    Isotropic =    25.7884   Anisotropy =    10.4713

     37  H    Isotropic =    24.7298   Anisotropy =     7.0810

     38  H    Isotropic =    25.0205   Anisotropy =     5.4902

  Exact polarizability: 411.000   0.142 227.892   0.021   7.621 178.970
 Approx polarizability: 434.395   0.180 288.119   0.025   7.561 239.175

                      1                      2                      3
                      A                      A                      A
 Frequencies --      1.6110                10.0869                28.3838
 Red. masses --      4.7806                 4.4201                 4.6063
 Frc consts  --      0.0000                 0.0003                 0.0022
 IR Inten    --      3.4524                 0.0035                 0.0002

                      4                      5                      6
                      A                      A                      A
 Frequencies --     34.4806                36.8674                65.5553
 Red. masses --      5.4124                 4.6402                 5.6447
 Frc consts  --      0.0038                 0.0037                 0.0143
 IR Inten    --      2.3754                 2.2613                 0.1847

                      7                      8                      9
                      A                      A                      A
 Frequencies --    151.6607               165.9763               184.6987
 Red. masses --      5.8342                 6.1065                 4.9195
 Frc consts  --      0.0791                 0.0991                 0.0989
 IR Inten    --      2.3918                 3.3565                 1.0985

                     10                     11                     12
                      A                      A                      A
 Frequencies --    191.7144               220.8207               311.3050
 Red. masses --      5.4178                 4.1774                 1.0460
 Frc consts  --      0.1173                 0.1200                 0.0597
 IR Inten    --      0.1567                 0.0005                22.0171

                     13                     14                     15
                      A                      A                      A
 Frequencies --    311.6137               337.2286               339.7973
 Red. masses --      1.0442                 4.5724                 4.6076
 Frc consts  --      0.0597                 0.3064                 0.3134
 IR Inten    --     42.0525                 0.0275                 6.2642

                     16                     17                     18
                      A                      A                      A
 Frequencies --    344.9032               358.1780               369.8155
 Red. masses --      5.5868                 6.5345                 4.5735
 Frc consts  --      0.3916                 0.4939                 0.3685
 IR Inten    --      2.6251                 0.2481                 7.3453

                     19                     20                     21
                      A                      A                      A
 Frequencies --    428.1361               428.2115               434.5027
 Red. masses --      3.1721                 3.1710                 3.7107
 Frc consts  --      0.3426                 0.3426                 0.4127
 IR Inten    --      0.6103                 0.0024                 8.9202

                     22                     23                     24
                      A                      A                      A
 Frequencies --    435.7169               465.8907               500.8787
 Red. masses --      3.8285                 3.2096                 2.8758
 Frc consts  --      0.4282                 0.4105                 0.4251
 IR Inten    --      0.0525                 0.3767               119.2427

                     25                     26                     27
                      A                      A                      A
 Frequencies --    514.8331               530.1550               536.2075
 Red. masses --      2.3948                 7.4981                 5.7966
 Frc consts  --      0.3740                 1.2417                 0.9819
 IR Inten    --      5.9355                13.8251                87.1215

                     28                     29                     30
                      A                      A                      A
 Frequencies --    600.2444               600.5753               616.1504
 Red. masses --      2.0195                 2.4514                 5.0306
 Frc consts  --      0.4287                 0.5209                 1.1252
 IR Inten    --    375.6808               274.8390                 0.0730

                     31                     32                     33
                      A                      A                      A
 Frequencies --    618.1403               635.1372               654.8229
 Red. masses --      1.8164                 2.3578                 6.9263
 Frc consts  --      0.4089                 0.5604                 1.7499
 IR Inten    --    296.5707                80.1944                 0.8563

                     34                     35                     36
                      A                      A                      A
 Frequencies --    655.2169               690.2618               710.3207
 Red. masses --      6.9062                 2.6683                 5.1291
 Frc consts  --      1.7469                 0.7491                 1.5248
 IR Inten    --      0.0629                 3.0446                 8.6814

                     37                     38                     39
                      A                      A                      A
 Frequencies --    721.3045               756.8760               772.3800
 Red. masses --      4.7420                 5.1953                 1.3575
 Frc consts  --      1.4536                 1.7535                 0.4771
 IR Inten    --      7.1363                15.7103                62.8176

                     40                     41                     42
                      A                      A                      A
 Frequencies --    780.1715               809.9968               821.1397
 Red. masses --      4.3232                 4.2733                 1.2535
 Frc consts  --      1.5504                 1.6519                 0.4980
 IR Inten    --      0.0022                 0.6561                 0.1101

                     43                     44                     45
                      A                      A                      A
 Frequencies --    821.2511               842.2124               848.5809
 Red. masses --      1.2536                 2.2650                 1.4490
 Frc consts  --      0.4981                 0.9466                 0.6148
 IR Inten    --      0.3127                 5.0152                45.2725

                     46                     47                     48
                      A                      A                      A
 Frequencies --    850.0916               861.8528               863.0220
 Red. masses --      1.9580                 3.5733                 1.4046
 Frc consts  --      0.8337                 1.5638                 0.6164
 IR Inten    --    159.7077                 0.2835                 0.0001

                     49                     50                     51
                      A                      A                      A
 Frequencies --    872.8448               945.1007               945.2310
 Red. masses --      6.6410                 1.3052                 1.3021
 Frc consts  --      2.9810                 0.6869                 0.6855
 IR Inten    --      3.2892                 0.0785                 2.0694

                     52                     53                     54
                      A                      A                      A
 Frequencies --    949.8850               949.9544               969.8999
 Red. masses --      1.3101                 1.3099                 1.2556
 Frc consts  --      0.6964                 0.6965                 0.6959
 IR Inten    --      0.0224                 0.0161                 0.0400

                     55                     56                     57
                      A                      A                      A
 Frequencies --    988.9792              1009.8382              1025.5111
 Red. masses --      2.9976                 6.0593                 2.6287
 Frc consts  --      1.7274                 3.6406                 1.6288
 IR Inten    --    175.4499                 0.5308                 0.7107

                     58                     59                     60
                      A                      A                      A
 Frequencies --   1025.6249              1088.9157              1088.9275
 Red. masses --      2.5655                 1.4292                 1.4290
 Frc consts  --      1.5900                 0.9984                 0.9984
 IR Inten    --     42.6255                 8.8970                 2.1203

                     61                     62                     63
                      A                      A                      A
 Frequencies --   1112.4383              1143.1831              1148.4700
 Red. masses --      1.5281                 1.6866                 1.1798
 Frc consts  --      1.1142                 1.2987                 0.9168
 IR Inten    --     10.3275               306.5664                12.0936

                     64                     65                     66
                      A                      A                      A
 Frequencies --   1148.4867              1184.3451              1184.5542
 Red. masses --      1.1798                 1.1359                 1.1577
 Frc consts  --      0.9169                 0.9387                 0.9571
 IR Inten    --     26.0488                 6.5373                 0.3087

                     67                     68                     69
                      A                      A                      A
 Frequencies --   1194.5658              1237.0290              1242.2404
 Red. masses --      1.2301                 3.4506                 3.7070
 Frc consts  --      1.0343                 3.1110                 3.3704
 IR Inten    --      7.0732                19.2404              1309.3031

                     70                     71                     72
                      A                      A                      A
 Frequencies --   1291.2660              1304.8347              1317.6927
 Red. masses --      5.0786                 1.6110                 3.6790
 Frc consts  --      4.9891                 1.6161                 3.7636
 IR Inten    --     23.0692                91.2473                37.0982

                     73                     74                     75
                      A                      A                      A
 Frequencies --   1320.3766              1324.3703              1324.4568
 Red. masses --      4.3290                 1.6438                 1.6424
 Frc consts  --      4.4466                 1.6987                 1.6975
 IR Inten    --     37.4216                 1.6603                 0.1605

                     76                     77                     78
                      A                      A                      A
 Frequencies --   1362.7382              1362.7475              1366.4498
 Red. masses --      3.3808                 3.3745                 5.3642
 Frc consts  --      3.6991                 3.6922                 5.9012
 IR Inten    --      2.6711                15.7722                72.4718

                     79                     80                     81
                      A                      A                      A
 Frequencies --   1475.1025              1475.1657              1488.9962
 Red. masses --      2.9901                 2.9895                 3.3295
 Frc consts  --      3.8334                 3.8330                 4.3492
 IR Inten    --      0.5108                 0.1556                 6.8710

                     82                     83                     84
                      A                      A                      A
 Frequencies --   1517.6960              1548.3912              1549.6713
 Red. masses --      2.4588                 2.6730                 2.6668
 Frc consts  --      3.3370                 3.7758                 3.7733
 IR Inten    --    579.2697               559.4791                47.9185

                     85                     86                     87
                      A                      A                      A
 Frequencies --   1631.9787              1633.6807              1633.7412
 Red. masses --      6.8845                 6.5372                 6.5393
 Frc consts  --     10.8031                10.2796                10.2836
 IR Inten    --    108.4173                 0.0821                 0.0158

                     88                     89                     90
                      A                      A                      A
 Frequencies --   1649.5751              1654.7050              1659.4064
 Red. masses --      3.0025                 1.5242                 1.7286
 Frc consts  --      4.8137                 2.4588                 2.8044
 IR Inten    --    205.4042                 4.2238                 2.9384

                     91                     92                     93
                      A                      A                      A
 Frequencies --   1669.4241              1671.7800              3184.3239
 Red. masses --      2.5757                 3.4725                 1.0888
 Frc consts  --      4.2294                 5.7180                 6.5046
 IR Inten    --      8.5286               423.9260                26.1027

                     94                     95                     96
                      A                      A                      A
 Frequencies --   3184.6174              3184.8613              3184.9428
 Red. masses --      1.0887                 1.0888                 1.0888
 Frc consts  --      6.5055                 6.5069                 6.5074
 IR Inten    --     26.9079                22.0655                20.3913

                     97                     98                     99
                      A                      A                      A
 Frequencies --   3191.1168              3206.7333              3206.7811
 Red. masses --      1.0891                 1.0942                 1.0942
 Frc consts  --      6.5344                 6.6292                 6.6295
 IR Inten    --     19.1531                18.8607                21.5234

                    100                    101                    102
                      A                      A                      A
 Frequencies --   3208.3353              3208.3534              3219.1659
 Red. masses --      1.0945                 1.0945                 1.0917
 Frc consts  --      6.6379                 6.6381                 6.6656
 IR Inten    --      2.2533                 1.7243                 2.9877

                    103                    104                    105
                      A                      A                      A
 Frequencies --   3231.7517              3234.3867              3561.0102
 Red. masses --      1.0908                 1.0936                 1.0486
 Frc consts  --      6.7125                 6.7406                 7.8344
 IR Inten    --      6.0933                 1.8994                38.3067

                    106                    107                    108
                      A                      A                      A
 Frequencies --   3561.2195              3662.7983              3663.0231
 Red. masses --      1.0486                 1.0983                 1.0983
 Frc consts  --      7.8353                 8.6814                 8.6825
 IR Inten    --     36.7582                24.6846                24.7245

 - Thermochemistry -
 -------------------
 Temperature   298.150 Kelvin.  Pressure   1.00000 Atm.
 Atom     1 has atomic number  7 and mass  14.00307

 Molecular mass:   292.12118 amu.
 Principal axes and moments of inertia in atomic units:
                           1         2         3
     Eigenvalues --  1343.83769********************
           X            1.00000   0.00000   0.00000
           Y           -0.00000  -0.17395   0.98475
           Z           -0.00000   0.98475   0.17395
 This molecule is an asymmetric top.
 Rotational symmetry number  1.
 Warning -- assumption of classical behavior for rotation
           may cause significant error
 Rotational temperatures (Kelvin)      0.06445     0.00403     0.00402
 Rotational constants (GHZ):           1.34298     0.08393     0.08371
 Zero-point vibrational energy     794635.4 (Joules/Mol)
                                  189.92243 (Kcal/Mol)
 Warning -- explicit consideration of  31 degrees of freedom as
           vibrations may cause significant error
 Vibrational temperatures:      2.32    14.51    40.84    49.61    53.04
          (Kelvin)             94.32   218.21   238.80   265.74   275.83
                              317.71   447.90   448.34   485.20   488.89
                              496.24   515.34   532.08   615.99   616.10
                              625.15   626.90   670.31   720.65   740.73
                              762.77   771.48   863.62   864.09   886.50
                              889.37   913.82   942.14   942.71   993.13
                             1021.99  1037.80  1088.98  1111.28  1122.49
                             1165.40  1181.44  1181.60  1211.76  1220.92
                             1223.09  1240.01  1241.70  1255.83  1359.79
                             1359.98  1366.67  1366.77  1395.47  1422.92
                             1452.93  1475.48  1475.65  1566.71  1566.72
                             1600.55  1644.79  1652.39  1652.42  1704.01
                             1704.31  1718.71  1779.81  1787.31  1857.84
                             1877.37  1895.87  1899.73  1905.47  1905.60
                             1960.68  1960.69  1966.02  2122.34  2122.43
                             2142.33  2183.63  2227.79  2229.63  2348.05
                             2350.50  2350.59  2373.37  2380.75  2387.52
                             2401.93  2405.32  4581.53  4581.95  4582.31
                             4582.42  4591.31  4613.77  4613.84  4616.08
                             4616.10  4631.66  4649.77  4653.56  5123.50
                             5123.80  5269.95  5270.27

 Zero-point correction=                           0.302661 (Hartree/Particle)
 Thermal correction to Energy=                    0.321484
 Thermal correction to Enthalpy=                  0.322428
 Thermal correction to Gibbs Free Energy=         0.249689
 Sum of electronic and zero-point Energies=           -955.225663
 Sum of electronic and thermal Energies=              -955.206840
 Sum of electronic and thermal Enthalpies=            -955.205896
 Sum of electronic and thermal Free Energies=         -955.278635

                     E (Thermal)             CV                S
                      KCal/Mol        Cal/Mol-Kelvin    Cal/Mol-Kelvin
 Total                  201.734             74.925            153.091
 Electronic               0.000              0.000              0.000
 Translational            0.889              2.981             42.913
 Rotational               0.889              2.981             34.787
 Vibrational            199.957             68.963             75.390
 Vibration     1          0.592              1.987             11.639
 Vibration     2          0.593              1.987              7.994
 Vibration     3          0.593              1.984              5.939
 Vibration     4          0.594              1.983              5.553
 Vibration     5          0.594              1.982              5.421
 Vibration     6          0.597              1.971              4.283
 Vibration     7          0.619              1.901              2.651
 Vibration     8          0.624              1.884              2.481
 Vibration     9          0.631              1.861              2.280
 Vibration    10          0.634              1.851              2.211
 Vibration    11          0.648              1.809              1.952
 Vibration    12          0.700              1.652              1.355
 Vibration    13          0.700              1.652              1.354
 Vibration    14          0.718              1.601              1.225
 Vibration    15          0.720              1.596              1.213
 Vibration    16          0.723              1.586              1.189
 Vibration    17          0.733              1.558              1.130
 Vibration    18          0.742              1.534              1.081
 Vibration    19          0.790              1.409              0.865
 Vibration    20          0.790              1.409              0.865
 Vibration    21          0.795              1.395              0.844
 Vibration    22          0.796              1.392              0.840
 Vibration    23          0.823              1.326              0.749
 Vibration    24          0.856              1.248              0.656
 Vibration    25          0.870              1.217              0.622
 Vibration    26          0.885              1.183              0.587
 Vibration    27          0.891              1.170              0.574
 Vibration    28          0.958              1.031              0.449
 Vibration    29          0.959              1.031              0.449
 Vibration    30          0.976              0.998              0.423
 Vibration    31          0.978              0.994              0.419

                           ! Non-Optimized Parameters !
 Normal termination of Gaussian 16 at Mon Jul 22 18:51:28 2024.
 Gaussian 16:  ES64L-G16RevA.03 25-Dec-2016

 ----------------------------------------------------------------------
 # TD(NStates=10, Root=1) B3LYP/6-31G** SCRF=(Solvent=water) volume pop
 =NPA density=current Geom=AllCheck Guess=Read
 ----------------------------------------------------------------------

 Structure from the checkpoint file:  "WUPRYUDHUFLKFL-UHFFFAOYSA-N_conf_2_2.chk"
 ----------------------------------
 WUPRYUDHUFLKFL-UHFFFAOYSA-N_conf_2
 ----------------------------------
 Charge =  0 Multiplicity = 1

                         Standard orientation:
 ---------------------------------------------------------------------
 Center     Atomic      Atomic             Coordinates (Angstroms)
 Number     Number       Type             X           Y           Z
 ---------------------------------------------------------------------
      1          7           0        7.462373    0.164926   -1.001096
      2          6           0        6.197487    0.071310   -0.419366
      3          6           0        5.528202    1.221906    0.038476
      4          6           0        4.239112    1.137277    0.559459
      5          6           0        3.597461   -0.098622    0.632328
      6          8           0        2.342406   -0.194851    1.235716
      7          6           0        1.206899   -0.078712    0.464108
      8          6           0        0.000074   -0.183044    1.158878
      9          6           0       -1.206675   -0.077971    0.464260
     10          8           0       -2.342369   -0.193147    1.235867
     11          6           0       -3.597467   -0.097298    0.632349
     12          6           0       -4.247041   -1.251161    0.195167
     13          6           0       -5.536047   -1.167876   -0.326570
     14          6           0       -6.197633    0.071281   -0.419342
     15          7           0       -7.462504    0.163829   -1.001226
     16          6           0       -5.526124    1.223234    0.031774
     17          6           0       -4.237023    1.139227    0.552914
     18          6           0       -1.219902    0.130591   -0.920116
     19          6           0        0.000145    0.231128   -1.589746
     20          6           0        1.220235    0.130192   -0.920090
     21          6           0        4.244758   -1.251134    0.188410
     22          6           0        5.533692   -1.167134   -0.333500
     23          1           0        8.011130   -0.684536   -0.960782
     24          1           0        8.007601    0.964096   -0.703644
     25          1           0        6.025489    2.186516   -0.012776
     26          1           0        3.731251    2.026547    0.919295
     27          1           0        0.000074   -0.343686    2.231114
     28          1           0       -3.745706   -2.210748    0.273452
     29          1           0       -6.038898   -2.069846   -0.664313
     30          1           0       -8.012412   -0.684663   -0.956969
     31          1           0       -8.006642    0.965204   -0.707765
     32          1           0       -6.021581    2.188516   -0.024669
     33          1           0       -3.727583    2.029643    0.907611
     34          1           0       -2.156523    0.211331   -1.457089
     35          1           0        0.000188    0.392646   -2.663849
     36          1           0        2.156815    0.210773   -1.457131
     37          1           0        3.741718   -2.210234    0.261377
     38          1           0        6.034781   -2.068018   -0.676621
 ---------------------------------------------------------------------

 SCF Done:  E(RB3LYP) =  -955.528324022     A.U. after    1 cycles

 Excitation energies and oscillator strengths:

 Excited State   1:      Singlet-A      4.5632 eV  271.70 nm  f=0.0000  <S**2>=0.000
      72 -> 81        -0.10828
      73 -> 82        -0.10908
      76 -> 79        -0.33936
      77 -> 78         0.59784
 This state for optimization and/or second-order correction.
 Total Energy, E(TD-HF/TD-DFT) =  -955.360628353
 Copying the excited state density for this state as the 1-particle RhoCI density.

 Excited State   2:      Singlet-A      4.5702 eV  271.29 nm  f=0.1369  <S**2>=0.000
      72 -> 82        -0.10831
      73 -> 81        -0.11268
      76 -> 78         0.58597
      77 -> 79        -0.35790

 Excited State   3:      Singlet-A      4.8869 eV  253.71 nm  f=0.2735  <S**2>=0.000
      74 -> 83        -0.19482
      75 -> 78         0.65950
      75 -> 80         0.13139

 Excited State   4:      Singlet-A      4.9104 eV  252.49 nm  f=0.0278  <S**2>=0.000
      76 -> 78         0.36445
      76 -> 80         0.29684
      77 -> 79         0.51644

 Excited State   5:      Singlet-A      4.9125 eV  252.39 nm  f=0.0003  <S**2>=0.000
      76 -> 79         0.51968
      77 -> 78         0.34368
      77 -> 80         0.31379

 Excited State   6:      Singlet-A      5.1835 eV  239.19 nm  f=0.0004  <S**2>=0.000
      74 -> 78         0.14298
      75 -> 79         0.68479

 Excited State   7:      Singlet-A      5.2455 eV  236.36 nm  f=0.0000  <S**2>=0.000
      76 -> 79        -0.30935
      77 -> 78        -0.11650
      77 -> 80         0.62071

 Excited State   8:      Singlet-A      5.2540 eV  235.98 nm  f=0.0041  <S**2>=0.000
      76 -> 78        -0.11329
      76 -> 80         0.62729
      77 -> 79        -0.29336

 Excited State   9:      Singlet-A      5.3546 eV  231.55 nm  f=0.0519  <S**2>=0.000
      74 -> 79        -0.14381
      74 -> 83        -0.22401
      75 -> 78        -0.19096
      75 -> 80         0.59165
      76 -> 82        -0.11416
      77 -> 81        -0.15647

 Excited State  10:      Singlet-A      5.3663 eV  231.04 nm  f=0.0010  <S**2>=0.000
      77 -> 83         0.70084

 The electronic state is 1-A.
 Alpha  occ. eigenvalues --  -19.18611 -19.18611 -14.33840 -14.33840 -10.25532
 Alpha  occ. eigenvalues --  -10.25532 -10.23947 -10.23947 -10.23184 -10.23183
 Alpha  occ. eigenvalues --  -10.19591 -10.19389 -10.19388 -10.19386 -10.19386
 Alpha  occ. eigenvalues --  -10.18906 -10.18906 -10.18905 -10.18904 -10.18470
 Alpha  occ. eigenvalues --  -10.18404 -10.18403  -1.07336  -1.07184  -0.91700
 Alpha  occ. eigenvalues --   -0.91697  -0.85819  -0.84050  -0.83333  -0.75864
 Alpha  occ. eigenvalues --   -0.75367  -0.75028  -0.75028  -0.71533  -0.71318
 Alpha  occ. eigenvalues --   -0.63834  -0.62156  -0.62152  -0.61470  -0.60650
 Alpha  occ. eigenvalues --   -0.57324  -0.55320  -0.51922  -0.51561  -0.51190
 Alpha  occ. eigenvalues --   -0.51160  -0.49763  -0.49552  -0.48089  -0.44881
 Alpha  occ. eigenvalues --   -0.44826  -0.44516  -0.44397  -0.43474  -0.42331
 Alpha  occ. eigenvalues --   -0.42258  -0.41820  -0.40990  -0.40177  -0.39682
 Alpha  occ. eigenvalues --   -0.38793  -0.37959  -0.37586  -0.37520  -0.35747
 Alpha  occ. eigenvalues --   -0.35130  -0.34827  -0.33944  -0.30805  -0.30490
 Alpha  occ. eigenvalues --   -0.30349  -0.25722  -0.25644  -0.23488  -0.22038
 Alpha  occ. eigenvalues --   -0.20465  -0.20408
 Alpha virt. eigenvalues --   -0.01373  -0.00647   0.00624   0.01121   0.01328
 Alpha virt. eigenvalues --    0.01519   0.08846   0.09008   0.09867   0.10559
 Alpha virt. eigenvalues --    0.10775   0.12970   0.12986   0.14772   0.15533

 Mulliken charges:
               1
     1  N   -0.618941
     2  C    0.270208
     3  C   -0.147953
     4  C   -0.132170
     5  C    0.308644
     6  O   -0.591221
     7  C    0.316024
     8  C   -0.197733
     9  C    0.316012
    10  O   -0.591075
    11  C    0.309380
    12  C   -0.132897
    13  C   -0.147944
    14  C    0.270220
    15  N   -0.617240
    16  C   -0.147994
    17  C   -0.132558
    18  C   -0.143142
    19  C   -0.152911
    20  C   -0.143186
    21  C   -0.132424
    22  C   -0.147885
    23  H    0.300751
    24  H    0.300771
    25  H    0.101234
    26  H    0.102446
    27  H    0.088709
    28  H    0.102436
    29  H    0.101339
    30  H    0.301391
    31  H    0.301430
    32  H    0.101309
    33  H    0.102437
    34  H    0.094653
    35  H    0.089497
    36  H    0.094629
    37  H    0.102482
    38  H    0.101272
 Sum of Mulliken charges =  -0.00000

 Dipole moment (field-independent basis, Debye):
    X=             -0.1110    Y=              0.3639    Z=             -2.1296  Tot=              2.1634
 Quadrupole moment (field-independent basis, Debye-Ang):
   XX=              8.7900   YY=           -117.0292   ZZ=           -134.4221
   XY=             -0.0433   XZ=              0.1307   YZ=              2.7384

 Summary of Natural Population Analysis:

                                       Natural Population
                Natural  -----------------------------------------------
    Atom  No    Charge         Core      Valence    Rydberg      Total
 -----------------------------------------------------------------------
      N    1   -0.75911      1.99949     5.74881    0.01081     7.75911
      C    2    0.17486      1.99898     3.80875    0.01741     5.82514
      C    3   -0.30023      1.99906     4.28557    0.01561     6.30023
      C    4   -0.30445      1.99900     4.28898    0.01647     6.30445
      C    5    0.31326      1.99870     3.66506    0.02298     5.68674
      O    6   -0.52305      1.99970     6.51195    0.01141     8.52305
      C    7    0.31697      1.99875     3.66214    0.02214     5.68303
      C    8   -0.37965      1.99895     4.36470    0.01599     6.37965
      C    9    0.31689      1.99875     3.66223    0.02214     5.68311
      O   10   -0.52284      1.99970     6.51174    0.01141     8.52284
      C   11    0.31516      1.99870     3.66316    0.02299     5.68484
      C   12   -0.30590      1.99900     4.29035    0.01656     6.30590
      C   13   -0.30031      1.99906     4.28557    0.01568     6.30031
      C   14    0.17522      1.99898     3.80838    0.01742     5.82478
      N   15   -0.75618      1.99949     5.74593    0.01077     7.75618
      C   16   -0.30054      1.99906     4.28579    0.01569     6.30054
      C   17   -0.30568      1.99900     4.29014    0.01654     6.30568
      C   18   -0.35079      1.99901     4.33949    0.01229     6.35079
      C   19   -0.25897      1.99914     4.24377    0.01607     6.25897
      C   20   -0.35085      1.99901     4.33956    0.01228     6.35085
      C   21   -0.30486      1.99900     4.28939    0.01648     6.30486
      C   22   -0.30000      1.99906     4.28534    0.01560     6.30000
      H   23    0.42647      0.00000     0.57098    0.00255     0.57353
      H   24    0.42650      0.00000     0.57095    0.00255     0.57350
      H   25    0.24654      0.00000     0.75185    0.00161     0.75346
      H   26    0.25505      0.00000     0.74335    0.00160     0.74495
      H   27    0.25296      0.00000     0.74489    0.00215     0.74704
      H   28    0.25507      0.00000     0.74333    0.00160     0.74493
      H   29    0.24658      0.00000     0.75181    0.00161     0.75342
      H   30    0.42680      0.00000     0.57065    0.00255     0.57320
      H   31    0.42685      0.00000     0.57060    0.00255     0.57315
      H   32    0.24657      0.00000     0.75182    0.00161     0.75343
      H   33    0.25507      0.00000     0.74334    0.00160     0.74493
      H   34    0.25129      0.00000     0.74727    0.00144     0.74871
      H   35    0.24235      0.00000     0.75628    0.00137     0.75765
      H   36    0.25130      0.00000     0.74726    0.00144     0.74870
      H   37    0.25508      0.00000     0.74332    0.00159     0.74492
      H   38    0.24657      0.00000     0.75182    0.00161     0.75343
 =======================================================================
   * Total *   -0.00000     43.97956   109.63631    0.38413   154.00000

 Normal termination of Gaussian 16 at Mon Jul 22 19:03:23 2024.
