 Gaussian 16, Revision A.03,

 -------------------------------------------------------
 # opt=CalcFc B3LYP/6-31G** SCRF=(Solvent=water) scf=xqc
 -------------------------------------------------------

 ----------------------------------
 WUPRYUDHUFLKFL-UHFFFAOYSA-N_conf_4
 ----------------------------------
 Symbolic Z-matrix:
 Charge =  0 Multiplicity = 1

 SCF Done:  E(RB3LYP) =  -955.528306571     A.U. after   12 cycles
 SCF Done:  E(RB3LYP) =  -955.528198664     A.U. after   12 cycles
 SCF Done:  E(RB3LYP) =  -955.528309870     A.U. after   12 cycles
 SCF Done:  E(RB3LYP) =  -955.528303409     A.U. after    9 cycles
 SCF Done:  E(RB3LYP) =  -955.528320321     A.U. after    8 cycles
 SCF Done:  E(RB3LYP) =  -955.499063310     A.U. after   11 cycles
 SCF Done:  E(RB3LYP) =  -955.527927330     A.U. after   11 cycles
 SCF Done:  E(RB3LYP) =  -955.528310745     A.U. after    7 cycles
 SCF Done:  E(RB3LYP) =  -955.528299669     A.U. after   10 cycles
 SCF Done:  E(RB3LYP) =  -955.524930670     A.U. after   10 cycles
 SCF Done:  E(RB3LYP) =  -955.528318566     A.U. after    7 cycles
 SCF Done:  E(RB3LYP) =  -955.528321926     A.U. after    8 cycles
 SCF Done:  E(RB3LYP) =  -955.528327089     A.U. after    8 cycles
 SCF Done:  E(RB3LYP) =  -955.528317848     A.U. after    7 cycles
 SCF Done:  E(RB3LYP) =  -955.528325238     A.U. after    8 cycles
 SCF Done:  E(RB3LYP) =  -955.528317478     A.U. after    8 cycles
 SCF Done:  E(RB3LYP) =  -955.528317826     A.U. after    7 cycles
 SCF Done:  E(RB3LYP) =  -955.528317429     A.U. after    6 cycles
 Optimization completed.
    -- Stationary point found.
 Normal termination of Gaussian 16 at Mon Jul 22 23:48:18 2024.

 ----------------------------------------------------------------------
 # freq B3LYP/6-31G** SCRF=(Solvent=water) volume NMR pop=NPA density=c
 urrent Geom=AllCheck Guess=Read
 ----------------------------------------------------------------------

 Structure from the checkpoint file:  "WUPRYUDHUFLKFL-UHFFFAOYSA-N_conf_4_1.chk"
 ----------------------------------
 WUPRYUDHUFLKFL-UHFFFAOYSA-N_conf_4
 ----------------------------------
 Charge =  0 Multiplicity = 1

 SCF Done:  E(RB3LYP) =  -955.528317429     A.U. after    1 cycles

      1  N    Isotropic =   199.8489   Anisotropy =    73.7387

      2  C    Isotropic =    51.5679   Anisotropy =   161.4258

      3  C    Isotropic =    81.4587   Anisotropy =   130.6862

      4  C    Isotropic =    72.5446   Anisotropy =   147.3267

      5  C    Isotropic =    52.3562   Anisotropy =   100.4746

      6  O    Isotropic =   183.4069   Anisotropy =    53.0679

      7  C    Isotropic =    35.3314   Anisotropy =   121.2865

      8  C    Isotropic =    92.6480   Anisotropy =   106.0491

      9  C    Isotropic =    35.3318   Anisotropy =   121.2872

     10  O    Isotropic =   183.4077   Anisotropy =    53.0700

     11  C    Isotropic =    52.3561   Anisotropy =   100.4749

     12  C    Isotropic =    72.5445   Anisotropy =   147.3181

     13  C    Isotropic =    81.4585   Anisotropy =   130.6900

     14  C    Isotropic =    51.5680   Anisotropy =   161.4249

     15  N    Isotropic =   199.8491   Anisotropy =    73.7384

     16  C    Isotropic =    81.4569   Anisotropy =   130.7041

     17  C    Isotropic =    72.5523   Anisotropy =   147.3047

     18  C    Isotropic =    91.0376   Anisotropy =   137.1339

     19  C    Isotropic =    66.6470   Anisotropy =   167.5973

     20  C    Isotropic =    91.0378   Anisotropy =   137.1340

     21  C    Isotropic =    72.5526   Anisotropy =   147.2957

     22  C    Isotropic =    81.4579   Anisotropy =   130.7051

     23  H    Isotropic =    28.5015   Anisotropy =    12.2331

     24  H    Isotropic =    28.5019   Anisotropy =    12.2309

     25  H    Isotropic =    25.0184   Anisotropy =     5.4933

     26  H    Isotropic =    24.7301   Anisotropy =     7.0906

     27  H    Isotropic =    25.0969   Anisotropy =     7.1875

     28  H    Isotropic =    24.7299   Anisotropy =     7.0882

     29  H    Isotropic =    25.0183   Anisotropy =     5.4929

     30  H    Isotropic =    28.5019   Anisotropy =    12.2314

     31  H    Isotropic =    28.5016   Anisotropy =    12.2327

     32  H    Isotropic =    25.0177   Anisotropy =     5.4952

     33  H    Isotropic =    24.7310   Anisotropy =     7.0905

     34  H    Isotropic =    25.7856   Anisotropy =    10.4366

     35  H    Isotropic =    24.6729   Anisotropy =     5.7247

     36  H    Isotropic =    25.7857   Anisotropy =    10.4366

     37  H    Isotropic =    24.7308   Anisotropy =     7.0877

     38  H    Isotropic =    25.0177   Anisotropy =     5.4946

  Exact polarizability: 411.637   0.028 229.143  -0.003  -0.923 177.442
 Approx polarizability: 434.988   0.036 289.238  -0.003  -0.923 237.434

                      1                      2                      3
                      A                      A                      A
 Frequencies --      6.8155                13.5163                26.6324
 Red. masses --      4.9337                 4.6468                 4.4006
 Frc consts  --      0.0001                 0.0005                 0.0018
 IR Inten    --      2.9374                 0.0001                 0.0001

                      4                      5                      6
                      A                      A                      A
 Frequencies --     34.0450                35.5499                64.5373
 Red. masses --      5.8387                 4.2614                 5.6187
 Frc consts  --      0.0040                 0.0032                 0.0138
 IR Inten    --      2.7351                 2.3242                 0.2289

                      7                      8                      9
                      A                      A                      A
 Frequencies --    150.6492               165.5954               183.5293
 Red. masses --      5.7288                 6.1757                 4.8918
 Frc consts  --      0.0766                 0.0998                 0.0971
 IR Inten    --      2.7454                 3.2240                 1.2530

                     10                     11                     12
                      A                      A                      A
 Frequencies --    191.1258               220.3921               310.0410
 Red. masses --      5.4325                 4.1814                 1.0371
 Frc consts  --      0.1169                 0.1197                 0.0587
 IR Inten    --      0.1587                 0.0001                 3.8334

                     13                     14                     15
                      A                      A                      A
 Frequencies --    310.0855               338.0658               340.7173
 Red. masses --      1.0366                 4.8624                 4.8493
 Frc consts  --      0.0587                 0.3274                 0.3317
 IR Inten    --     63.2086                 0.0000                 3.9299

                     16                     17                     18
                      A                      A                      A
 Frequencies --    344.1943               357.7543               369.3988
 Red. masses --      5.5583                 6.5320                 4.5577
 Frc consts  --      0.3880                 0.4926                 0.3664
 IR Inten    --      2.8808                 0.3592                 7.5963

                     19                     20                     21
                      A                      A                      A
 Frequencies --    427.9377               427.9888               435.8572
 Red. masses --      3.1561                 3.1552                 3.6654
 Frc consts  --      0.3405                 0.3405                 0.4103
 IR Inten    --      0.9849                 0.0000                 9.3857

                     22                     23                     24
                      A                      A                      A
 Frequencies --    437.1336               465.4538               501.1290
 Red. masses --      3.7820                 3.2079                 2.8820
 Frc consts  --      0.4258                 0.4095                 0.4264
 IR Inten    --      0.0000                 0.3112               117.4998

                     25                     26                     27
                      A                      A                      A
 Frequencies --    515.0187               530.2152               536.3705
 Red. masses --      2.4057                 7.4675                 5.8215
 Frc consts  --      0.3760                 1.2369                 0.9868
 IR Inten    --      5.7335                13.9557                86.7496

                     28                     29                     30
                      A                      A                      A
 Frequencies --    600.4057               600.8011               615.6484
 Red. masses --      1.9244                 2.6264                 5.0478
 Frc consts  --      0.4087                 0.5586                 1.1272
 IR Inten    --    408.7137               242.3279                 0.0421

                     31                     32                     33
                      A                      A                      A
 Frequencies --    617.5704               634.7584               654.9196
 Red. masses --      1.8052                 2.3673                 6.9296
 Frc consts  --      0.4056                 0.5620                 1.7512
 IR Inten    --    298.3036                80.0480                 0.8110

                     34                     35                     36
                      A                      A                      A
 Frequencies --    655.2921               689.9444               710.4021
 Red. masses --      6.9141                 2.6885                 5.1170
 Frc consts  --      1.7493                 0.7540                 1.5215
 IR Inten    --      0.0042                 2.9233                 7.9187

                     37                     38                     39
                      A                      A                      A
 Frequencies --    721.5577               756.9405               772.0601
 Red. masses --      4.7286                 5.1910                 1.3547
 Frc consts  --      1.4505                 1.7524                 0.4758
 IR Inten    --      6.6833                15.8210                63.2944

                     40                     41                     42
                      A                      A                      A
 Frequencies --    780.4101               810.0585               820.7857
 Red. masses --      4.3172                 4.2561                 1.2542
 Frc consts  --      1.5491                 1.6455                 0.4978
 IR Inten    --      0.0002                 0.6759                 0.0005

                     43                     44                     45
                      A                      A                      A
 Frequencies --    820.8546               842.0637               848.5426
 Red. masses --      1.2541                 2.2690                 1.4453
 Frc consts  --      0.4979                 0.9479                 0.6131
 IR Inten    --      0.3627                 4.5467                45.0130

                     46                     47                     48
                      A                      A                      A
 Frequencies --    850.0274               861.8864               862.8487
 Red. masses --      1.9675                 3.5879                 1.4025
 Frc consts  --      0.8376                 1.5703                 0.6152
 IR Inten    --    162.3226                 0.2398                 0.0000

                     49                     50                     51
                      A                      A                      A
 Frequencies --    872.9256               944.5686               944.6644
 Red. masses --      6.6423                 1.3065                 1.3035
 Frc consts  --      2.9821                 0.6868                 0.6853
 IR Inten    --      3.1891                 0.0039                 1.9397

                     52                     53                     54
                      A                      A                      A
 Frequencies --    949.3923               949.4197               969.7782
 Red. masses --      1.3112                 1.3112                 1.2557
 Frc consts  --      0.6963                 0.6963                 0.6958
 IR Inten    --      0.0490                 0.0011                 0.0432

                     55                     56                     57
                      A                      A                      A
 Frequencies --    988.9730              1009.8366              1025.7982
 Red. masses --      2.9936                 6.0594                 2.6301
 Frc consts  --      1.7251                 3.6407                 1.6306
 IR Inten    --    175.8058                 0.5230                 0.1628

                     58                     59                     60
                      A                      A                      A
 Frequencies --   1025.8690              1090.5445              1090.5557
 Red. masses --      2.5679                 1.4290                 1.4289
 Frc consts  --      1.5923                 1.0013                 1.0013
 IR Inten    --     43.6047                 8.5860                 1.7834

                     61                     62                     63
                      A                      A                      A
 Frequencies --   1112.1617              1143.2566              1148.5025
 Red. masses --      1.5307                 1.6880                 1.1801
 Frc consts  --      1.1155                 1.2999                 0.9171
 IR Inten    --     10.4355               304.5667                 4.3637

                     64                     65                     66
                      A                      A                      A
 Frequencies --   1148.5102              1184.6965              1185.1474
 Red. masses --      1.1801                 1.1386                 1.1643
 Frc consts  --      0.9171                 0.9415                 0.9635
 IR Inten    --     33.6047                 8.0204                 0.1776

                     67                     68                     69
                      A                      A                      A
 Frequencies --   1195.1076              1237.5494              1242.5713
 Red. masses --      1.2293                 3.4014                 3.6756
 Frc consts  --      1.0345                 3.0693                 3.3437
 IR Inten    --      9.3363                18.9198              1309.2881

                     70                     71                     72
                      A                      A                      A
 Frequencies --   1291.3489              1304.9461              1317.4117
 Red. masses --      5.0429                 1.6153                 3.6623
 Frc consts  --      4.9547                 1.6207                 3.7450
 IR Inten    --     23.1434                93.4324                34.6525

                     73                     74                     75
                      A                      A                      A
 Frequencies --   1320.1441              1324.5765              1324.6533
 Red. masses --      4.3603                 1.6597                 1.6586
 Frc consts  --      4.4772                 1.7157                 1.7147
 IR Inten    --     37.1438                 1.8859                 0.0014

                     76                     77                     78
                      A                      A                      A
 Frequencies --   1363.1412              1363.1487              1366.6046
 Red. masses --      3.3257                 3.3212                 5.3727
 Frc consts  --      3.6409                 3.6361                 5.9119
 IR Inten    --      0.0496                18.2971                73.3974

                     79                     80                     81
                      A                      A                      A
 Frequencies --   1475.8322              1475.8792              1488.6357
 Red. masses --      2.9573                 2.9578                 3.3246
 Frc consts  --      3.7950                 3.7960                 4.3408
 IR Inten    --      0.6027                 0.0002                 6.8391

                     82                     83                     84
                      A                      A                      A
 Frequencies --   1517.7846              1548.3732              1549.6587
 Red. masses --      2.4605                 2.6760                 2.6697
 Frc consts  --      3.3396                 3.7799                 3.7773
 IR Inten    --    582.9374               561.6735                46.4309

                     85                     86                     87
                      A                      A                      A
 Frequencies --   1632.0891              1633.4561              1633.5130
 Red. masses --      6.8908                 6.5459                 6.5480
 Frc consts  --     10.8145                10.2905                10.2944
 IR Inten    --    108.6729                 0.0841                 0.0026

                     88                     89                     90
                      A                      A                      A
 Frequencies --   1650.0206              1655.7793              1660.0898
 Red. masses --      3.3385                 1.5667                 1.6574
 Frc consts  --      5.3553                 2.5307                 2.6911
 IR Inten    --    198.2657                 5.0751                 1.8504

                     91                     92                     93
                      A                      A                      A
 Frequencies --   1669.5293              1671.8174              3184.4549
 Red. masses --      2.4517                 3.3524                 1.0887
 Frc consts  --      4.0264                 5.5205                 6.5050
 IR Inten    --      7.4089               426.9087                31.1892

                     94                     95                     96
                      A                      A                      A
 Frequencies --   3184.4819              3184.7111              3184.7274
 Red. masses --      1.0887                 1.0888                 1.0888
 Frc consts  --      6.5051                 6.5064                 6.5063
 IR Inten    --     22.8142                24.0744                19.4724

                     97                     98                     99
                      A                      A                      A
 Frequencies --   3191.1807              3206.8511              3206.8543
 Red. masses --      1.0891                 1.0942                 1.0942
 Frc consts  --      6.5346                 6.6297                 6.6297
 IR Inten    --     19.0956                 1.3519                39.4221

                    100                    101                    102
                      A                      A                      A
 Frequencies --   3208.3828              3208.3933              3219.1930
 Red. masses --      1.0945                 1.0945                 1.0917
 Frc consts  --      6.6381                 6.6382                 6.6656
 IR Inten    --      2.2087                 1.2508                 3.0521

                    103                    104                    105
                      A                      A                      A
 Frequencies --   3232.1194              3234.7361              3561.6422
 Red. masses --      1.0908                 1.0936                 1.0486
 Frc consts  --      6.7140                 6.7420                 7.8371
 IR Inten    --      6.1178                 1.8695                70.4701

                    106                    107                    108
                      A                      A                      A
 Frequencies --   3561.6481              3663.2248              3663.2401
 Red. masses --      1.0486                 1.0982                 1.0982
 Frc consts  --      7.8372                 8.6830                 8.6831
 IR Inten    --      6.4645                25.0537                25.2578

 - Thermochemistry -
 -------------------
 Temperature   298.150 Kelvin.  Pressure   1.00000 Atm.
 Atom     1 has atomic number  7 and mass  14.00307

 Molecular mass:   292.12118 amu.
 Principal axes and moments of inertia in atomic units:
                           1         2         3
     Eigenvalues --  1339.08220********************
           X            1.00000  -0.00000  -0.00000
           Y            0.00000   0.02275   0.99974
           Z            0.00000   0.99974  -0.02275
 This molecule is an asymmetric top.
 Rotational symmetry number  1.
 Warning -- assumption of classical behavior for rotation
           may cause significant error
 Rotational temperatures (Kelvin)      0.06468     0.00402     0.00401
 Rotational constants (GHZ):           1.34774     0.08383     0.08363
 Zero-point vibrational energy     794689.0 (Joules/Mol)
                                  189.93524 (Kcal/Mol)
 Warning -- explicit consideration of  31 degrees of freedom as
           vibrations may cause significant error
 Vibrational temperatures:      9.81    19.45    38.32    48.98    51.15
          (Kelvin)             92.85   216.75   238.25   264.06   274.99
                              317.10   446.08   446.14   486.40   490.22
                              495.22   514.73   531.48   615.71   615.78
                              627.10   628.94   669.68   721.01   741.00
                              762.86   771.72   863.85   864.42   885.78
                              888.55   913.28   942.28   942.82   992.68
                             1022.11  1038.16  1089.07  1110.82  1122.84
                             1165.49  1180.93  1181.03  1211.54  1220.86
                             1223.00  1240.06  1241.45  1255.95  1359.02
                             1359.16  1365.96  1366.00  1395.29  1422.91
                             1452.93  1475.89  1476.00  1569.05  1569.07
                             1600.15  1644.89  1652.44  1652.45  1704.51
                             1705.16  1719.49  1780.56  1787.78  1857.96
                             1877.53  1895.46  1899.39  1905.77  1905.88
                             1961.26  1961.27  1966.24  2123.39  2123.46
                             2141.81  2183.75  2227.76  2229.61  2348.21
                             2350.18  2350.26  2374.01  2382.30  2388.50
                             2402.08  2405.37  4581.72  4581.76  4582.09
                             4582.11  4591.40  4613.94  4613.95  4616.15
                             4616.16  4631.70  4650.30  4654.06  5124.41
                             5124.42  5270.56  5270.59

 Zero-point correction=                           0.302681 (Hartree/Particle)
 Thermal correction to Energy=                    0.321502
 Thermal correction to Enthalpy=                  0.322446
 Thermal correction to Gibbs Free Energy=         0.251204
 Sum of electronic and zero-point Energies=           -955.225636
 Sum of electronic and thermal Energies=              -955.206816
 Sum of electronic and thermal Enthalpies=            -955.205872
 Sum of electronic and thermal Free Energies=         -955.277114

                     E (Thermal)             CV                S
                      KCal/Mol        Cal/Mol-Kelvin    Cal/Mol-Kelvin
 Total                  201.745             74.930            149.942
 Electronic               0.000              0.000              0.000
 Translational            0.889              2.981             42.913
 Rotational               0.889              2.981             34.785
 Vibrational            199.968             68.968             72.243
 Vibration     1          0.593              1.987              8.773
 Vibration     2          0.593              1.986              7.412
 Vibration     3          0.593              1.984              6.066
 Vibration     4          0.594              1.983              5.579
 Vibration     5          0.594              1.982              5.493
 Vibration     6          0.597              1.971              4.313
 Vibration     7          0.618              1.902              2.664
 Vibration     8          0.624              1.885              2.485
 Vibration     9          0.631              1.862              2.292
 Vibration    10          0.634              1.852              2.217
 Vibration    11          0.647              1.810              1.956
 Vibration    12          0.699              1.655              1.362
 Vibration    13          0.699              1.654              1.362
 Vibration    14          0.718              1.599              1.221
 Vibration    15          0.720              1.594              1.209
 Vibration    16          0.723              1.587              1.193
 Vibration    17          0.733              1.559              1.132
 Vibration    18          0.742              1.535              1.082
 Vibration    19          0.789              1.409              0.865
 Vibration    20          0.789              1.409              0.865
 Vibration    21          0.796              1.392              0.840
 Vibration    22          0.797              1.389              0.836
 Vibration    23          0.823              1.327              0.750
 Vibration    24          0.857              1.248              0.655
 Vibration    25          0.870              1.217              0.622
 Vibration    26          0.885              1.183              0.587
 Vibration    27          0.891              1.170              0.573
 Vibration    28          0.959              1.031              0.449
 Vibration    29          0.959              1.030              0.448
 Vibration    30          0.975              0.999              0.424
 Vibration    31          0.977              0.995              0.420

                           ! Non-Optimized Parameters !
 Normal termination of Gaussian 16 at Tue Jul 23 00:02:44 2024.
 Gaussian 16:  ES64L-G16RevA.03 25-Dec-2016

 ----------------------------------------------------------------------
 # TD(NStates=10, Root=1) B3LYP/6-31G** SCRF=(Solvent=water) volume pop
 =NPA density=current Geom=AllCheck Guess=Read
 ----------------------------------------------------------------------

 Structure from the checkpoint file:  "WUPRYUDHUFLKFL-UHFFFAOYSA-N_conf_4_2.chk"
 ----------------------------------
 WUPRYUDHUFLKFL-UHFFFAOYSA-N_conf_4
 ----------------------------------
 Charge =  0 Multiplicity = 1

                         Standard orientation:
 ---------------------------------------------------------------------
 Center     Atomic      Atomic             Coordinates (Angstroms)
 Number     Number       Type             X           Y           Z
 ---------------------------------------------------------------------
      1          7           0        7.469409   -0.017898   -1.002268
      2          6           0        6.201643   -0.007128   -0.419139
      3          6           0        5.534056   -1.210853   -0.123974
      4          6           0        4.243185   -1.200728    0.399490
      5          6           0        3.597772    0.012395    0.636504
      6          8           0        2.341782    0.023846    1.245447
      7          6           0        1.206825    0.007997    0.464563
      8          6           0        0.000001    0.021799    1.166807
      9          6           0       -1.206813    0.007694    0.464553
     10          8           0       -2.341780    0.023179    1.245425
     11          6           0       -3.597757    0.012053    0.636451
     12          6           0       -4.243792   -1.200895    0.400261
     13          6           0       -5.534687   -1.210720   -0.123159
     14          6           0       -6.201666   -0.006853   -0.419121
     15          7           0       -7.469465   -0.017353   -1.002192
     16          6           0       -5.533298    1.206787   -0.169882
     17          6           0       -4.242411    1.215703    0.353537
     18          6           0       -1.220226   -0.020164   -0.935040
     19          6           0        0.000015   -0.033480   -1.611882
     20          6           0        1.220250   -0.019841   -0.935031
     21          6           0        4.243041    1.215904    0.354408
     22          6           0        5.533925    1.206688   -0.169020
     23          1           0        8.015881    0.819100   -0.843621
     24          1           0        8.015453   -0.848942   -0.813687
     25          1           0        6.033996   -2.158480   -0.304456
     26          1           0        3.737177   -2.131766    0.634700
     27          1           0       -0.000010    0.043385    2.250796
     28          1           0       -3.738239   -2.132027    0.636076
     29          1           0       -6.035089   -2.158224   -0.303012
     30          1           0       -8.016008   -0.847904   -0.812885
     31          1           0       -8.015439    0.820096   -0.844190
     32          1           0       -6.032597    2.147199   -0.386319
     33          1           0       -3.735703    2.154632    0.553161
     34          1           0       -2.156711   -0.031070   -1.478150
     35          1           0        0.000022   -0.055049   -2.697846
     36          1           0        2.156740   -0.030478   -1.478136
     37          1           0        3.736799    2.154947    0.554677
     38          1           0        6.033722    2.146984   -0.384817
 ---------------------------------------------------------------------

 SCF Done:  E(RB3LYP) =  -955.528317429     A.U. after    1 cycles

 Excitation energies and oscillator strengths:

 Excited State   1:      Singlet-A      4.5638 eV  271.67 nm  f=0.0000  <S**2>=0.000
      72 -> 81         0.10841
      73 -> 82         0.10919
      76 -> 79        -0.34030
      77 -> 78         0.59725
 This state for optimization and/or second-order correction.
 Total Energy, E(TD-HF/TD-DFT) =  -955.360602369
 Copying the excited state density for this state as the 1-particle RhoCI density.

 Excited State   2:      Singlet-A      4.5706 eV  271.26 nm  f=0.1374  <S**2>=0.000
      72 -> 82         0.10840
      73 -> 81         0.11278
      76 -> 78         0.58543
      77 -> 79        -0.35869

 Excited State   3:      Singlet-A      4.8884 eV  253.63 nm  f=0.2739  <S**2>=0.000
      74 -> 83        -0.19544
      75 -> 78         0.65985
      75 -> 80         0.13199

 Excited State   4:      Singlet-A      4.9110 eV  252.46 nm  f=0.0277  <S**2>=0.000
      76 -> 78         0.36645
      76 -> 80         0.29873
      77 -> 79         0.51673

 Excited State   5:      Singlet-A      4.9130 eV  252.36 nm  f=0.0000  <S**2>=0.000
      76 -> 79         0.51998
      77 -> 78         0.34586
      77 -> 80         0.31564

 Excited State   6:      Singlet-A      5.1845 eV  239.14 nm  f=0.0004  <S**2>=0.000
      74 -> 78        -0.14403
      75 -> 79         0.68461

 Excited State   7:      Singlet-A      5.2455 eV  236.36 nm  f=0.0000  <S**2>=0.000
      76 -> 79        -0.31014
      77 -> 78        -0.11687
      77 -> 80         0.62029

 Excited State   8:      Singlet-A      5.2538 eV  235.99 nm  f=0.0040  <S**2>=0.000
      76 -> 78        -0.11369
      76 -> 80         0.62682
      77 -> 79        -0.29422

 Excited State   9:      Singlet-A      5.3546 eV  231.55 nm  f=0.0513  <S**2>=0.000
      74 -> 79         0.14563
      74 -> 83        -0.22392
      75 -> 78        -0.19146
      75 -> 80         0.59134
      76 -> 82         0.11398
      77 -> 81         0.15594

 Excited State  10:      Singlet-A      5.3673 eV  231.00 nm  f=0.0000  <S**2>=0.000
      77 -> 83         0.70129

 The electronic state is 1-A.
 Alpha  occ. eigenvalues --  -19.18609 -19.18609 -14.33837 -14.33837 -10.25531
 Alpha  occ. eigenvalues --  -10.25531 -10.23948 -10.23948 -10.23184 -10.23184
 Alpha  occ. eigenvalues --  -10.19594 -10.19387 -10.19386 -10.19386 -10.19386
 Alpha  occ. eigenvalues --  -10.18906 -10.18906 -10.18905 -10.18905 -10.18465
 Alpha  occ. eigenvalues --  -10.18407 -10.18406  -1.07336  -1.07184  -0.91696
 Alpha  occ. eigenvalues --   -0.91693  -0.85822  -0.84051  -0.83333  -0.75865
 Alpha  occ. eigenvalues --   -0.75372  -0.75028  -0.75028  -0.71532  -0.71316
 Alpha  occ. eigenvalues --   -0.63838  -0.62153  -0.62150  -0.61469  -0.60650
 Alpha  occ. eigenvalues --   -0.57323  -0.55319  -0.51920  -0.51559  -0.51185
 Alpha  occ. eigenvalues --   -0.51155  -0.49763  -0.49551  -0.48088  -0.44880
 Alpha  occ. eigenvalues --   -0.44823  -0.44513  -0.44396  -0.43471  -0.42330
 Alpha  occ. eigenvalues --   -0.42258  -0.41818  -0.40989  -0.40178  -0.39677
 Alpha  occ. eigenvalues --   -0.38791  -0.37961  -0.37589  -0.37520  -0.35747
 Alpha  occ. eigenvalues --   -0.35128  -0.34829  -0.33943  -0.30805  -0.30490
 Alpha  occ. eigenvalues --   -0.30348  -0.25722  -0.25644  -0.23485  -0.22040
 Alpha  occ. eigenvalues --   -0.20466  -0.20409
 Alpha virt. eigenvalues --   -0.01369  -0.00646   0.00621   0.01120   0.01326
 Alpha virt. eigenvalues --    0.01521   0.08846   0.09009   0.09867   0.10561
 Alpha virt. eigenvalues --    0.10778   0.12973   0.12989   0.14780   0.15534

 Mulliken charges:
               1
     1  N   -0.617868
     2  C    0.269900
     3  C   -0.147900
     4  C   -0.132686
     5  C    0.309222
     6  O   -0.591034
     7  C    0.316290
     8  C   -0.197766
     9  C    0.316297
    10  O   -0.591088
    11  C    0.309030
    12  C   -0.132590
    13  C   -0.147881
    14  C    0.269901
    15  N   -0.618337
    16  C   -0.147892
    17  C   -0.132513
    18  C   -0.143228
    19  C   -0.152832
    20  C   -0.143216
    21  C   -0.132656
    22  C   -0.147909
    23  H    0.301142
    24  H    0.301157
    25  H    0.101314
    26  H    0.102403
    27  H    0.088822
    28  H    0.102408
    29  H    0.101299
    30  H    0.300980
    31  H    0.300965
    32  H    0.101267
    33  H    0.102413
    34  H    0.094644
    35  H    0.089607
    36  H    0.094655
    37  H    0.102398
    38  H    0.101281
 Sum of Mulliken charges =  -0.00000

 Dipole moment (field-independent basis, Debye):
    X=              0.0295    Y=             -0.0383    Z=             -2.1117  Tot=              2.1123
 Quadrupole moment (field-independent basis, Debye-Ang):
   XX=              8.7788   YY=           -116.6178   ZZ=           -134.8539
   XY=             -0.0140   XZ=             -0.0367   YZ=             -0.3381

 Summary of Natural Population Analysis:

                                       Natural Population
                Natural  -----------------------------------------------
    Atom  No    Charge         Core      Valence    Rydberg      Total
 -----------------------------------------------------------------------
      N    1   -0.75732      1.99949     5.74704    0.01079     7.75732
      C    2    0.17504      1.99898     3.80856    0.01742     5.82496
      C    3   -0.30038      1.99906     4.28567    0.01566     6.30038
      C    4   -0.30549      1.99900     4.28997    0.01652     6.30549
      C    5    0.31442      1.99870     3.66390    0.02299     5.68558
      O    6   -0.52281      1.99970     6.51170    0.01142     8.52281
      C    7    0.31704      1.99875     3.66208    0.02213     5.68296
      C    8   -0.37945      1.99895     4.36451    0.01598     6.37945
      C    9    0.31706      1.99875     3.66205    0.02213     5.68294
      O   10   -0.52288      1.99970     6.51176    0.01142     8.52288
      C   11    0.31389      1.99870     3.66443    0.02298     5.68611
      C   12   -0.30516      1.99900     4.28966    0.01650     6.30516
      C   13   -0.30029      1.99906     4.28559    0.01564     6.30029
      C   14    0.17494      1.99898     3.80867    0.01741     5.82506
      N   15   -0.75812      1.99949     5.74783    0.01080     7.75812
      C   16   -0.30032      1.99906     4.28562    0.01564     6.30032
      C   17   -0.30510      1.99900     4.28960    0.01650     6.30510
      C   18   -0.35084      1.99901     4.33955    0.01227     6.35084
      C   19   -0.25873      1.99914     4.24354    0.01606     6.25873
      C   20   -0.35083      1.99901     4.33954    0.01228     6.35083
      C   21   -0.30541      1.99900     4.28989    0.01652     6.30541
      C   22   -0.30040      1.99906     4.28568    0.01566     6.30040
      H   23    0.42667      0.00000     0.57077    0.00255     0.57333
      H   24    0.42668      0.00000     0.57077    0.00255     0.57332
      H   25    0.24660      0.00000     0.75179    0.00161     0.75340
      H   26    0.25505      0.00000     0.74336    0.00160     0.74495
      H   27    0.25302      0.00000     0.74483    0.00215     0.74698
      H   28    0.25505      0.00000     0.74336    0.00160     0.74495
      H   29    0.24660      0.00000     0.75179    0.00161     0.75340
      H   30    0.42659      0.00000     0.57086    0.00255     0.57341
      H   31    0.42658      0.00000     0.57087    0.00255     0.57342
      H   32    0.24658      0.00000     0.75181    0.00161     0.75342
      H   33    0.25505      0.00000     0.74336    0.00160     0.74495
      H   34    0.25130      0.00000     0.74726    0.00144     0.74870
      H   35    0.24241      0.00000     0.75622    0.00137     0.75759
      H   36    0.25131      0.00000     0.74725    0.00144     0.74869
      H   37    0.25504      0.00000     0.74336    0.00160     0.74496
      H   38    0.24659      0.00000     0.75180    0.00161     0.75341
 =======================================================================
   * Total *   -0.00000     43.97956   109.63629    0.38415   154.00000

 Normal termination of Gaussian 16 at Tue Jul 23 00:16:24 2024.
