 Gaussian 16, Revision A.03,

 -------------------------------------------------------
 # opt=CalcFc B3LYP/6-31G** SCRF=(Solvent=water) scf=xqc
 -------------------------------------------------------

 ----------------------------------
 WUPRYUDHUFLKFL-UHFFFAOYSA-N_conf_3
 ----------------------------------
 Symbolic Z-matrix:
 Charge =  0 Multiplicity = 1

 SCF Done:  E(RB3LYP) =  -955.522162279     A.U. after   12 cycles
 SCF Done:  E(RB3LYP) =  -955.526754894     A.U. after   11 cycles
 SCF Done:  E(RB3LYP) =  -955.527834800     A.U. after   12 cycles
 SCF Done:  E(RB3LYP) =  -955.527344870     A.U. after   13 cycles
 SCF Done:  E(RB3LYP) =  -955.512776958     A.U. after   11 cycles
 SCF Done:  E(RB3LYP) =  -955.513413823     A.U. after   11 cycles
 SCF Done:  E(RB3LYP) =  -955.527920729     A.U. after    8 cycles
 SCF Done:  E(RB3LYP) =  -955.528191987     A.U. after   12 cycles
 SCF Done:  E(RB3LYP) =  -955.528214611     A.U. after   12 cycles
 SCF Done:  E(RB3LYP) =  -955.528295834     A.U. after   10 cycles
 SCF Done:  E(RB3LYP) =  -955.527920777     A.U. after   11 cycles
 SCF Done:  E(RB3LYP) =  -955.528321468     A.U. after    5 cycles
 SCF Done:  E(RB3LYP) =  -955.528226653     A.U. after    9 cycles
 SCF Done:  E(RB3LYP) =  -955.528300035     A.U. after    9 cycles
 SCF Done:  E(RB3LYP) =  -955.528266517     A.U. after    9 cycles
 SCF Done:  E(RB3LYP) =  -955.528326062     A.U. after    9 cycles
 SCF Done:  E(RB3LYP) =  -955.528302233     A.U. after    9 cycles
 SCF Done:  E(RB3LYP) =  -955.528307490     A.U. after    8 cycles
 Optimization completed.
    -- Stationary point found.
 Normal termination of Gaussian 16 at Fri Jul 19 14:02:16 2024.

 ----------------------------------------------------------------------
 # freq B3LYP/6-31G** SCRF=(Solvent=water) volume NMR pop=NPA density=c
 urrent Geom=AllCheck Guess=Read
 ----------------------------------------------------------------------

 Structure from the checkpoint file:  "WUPRYUDHUFLKFL-UHFFFAOYSA-N_conf_3_1.chk"
 ----------------------------------
 WUPRYUDHUFLKFL-UHFFFAOYSA-N_conf_3
 ----------------------------------
 Charge =  0 Multiplicity = 1

 SCF Done:  E(RB3LYP) =  -955.528307490     A.U. after    1 cycles

      1  N    Isotropic =   199.8585   Anisotropy =    73.6376

      2  C    Isotropic =    51.5642   Anisotropy =   161.4262

      3  C    Isotropic =    81.4731   Anisotropy =   130.6699

      4  C    Isotropic =    72.5615   Anisotropy =   147.2376

      5  C    Isotropic =    52.3693   Anisotropy =   100.5174

      6  O    Isotropic =   183.4395   Anisotropy =    53.1060

      7  C    Isotropic =    35.3263   Anisotropy =   121.2991

      8  C    Isotropic =    92.6316   Anisotropy =   106.0459

      9  C    Isotropic =    35.3620   Anisotropy =   121.2629

     10  O    Isotropic =   183.6706   Anisotropy =    53.9288

     11  C    Isotropic =    52.3828   Anisotropy =   100.6472

     12  C    Isotropic =    72.5304   Anisotropy =   147.5558

     13  C    Isotropic =    81.4144   Anisotropy =   130.8096

     14  C    Isotropic =    51.5716   Anisotropy =   161.4779

     15  N    Isotropic =   199.9656   Anisotropy =    74.1199

     16  C    Isotropic =    81.4444   Anisotropy =   130.6209

     17  C    Isotropic =    72.5513   Anisotropy =   147.2613

     18  C    Isotropic =    91.0572   Anisotropy =   137.1237

     19  C    Isotropic =    66.6627   Anisotropy =   167.5880

     20  C    Isotropic =    91.0688   Anisotropy =   137.1026

     21  C    Isotropic =    72.5578   Anisotropy =   147.4336

     22  C    Isotropic =    81.4754   Anisotropy =   130.7786

     23  H    Isotropic =    28.5023   Anisotropy =    12.2353

     24  H    Isotropic =    28.5075   Anisotropy =    12.2280

     25  H    Isotropic =    25.0258   Anisotropy =     5.4684

     26  H    Isotropic =    24.7320   Anisotropy =     7.0547

     27  H    Isotropic =    25.0898   Anisotropy =     7.1690

     28  H    Isotropic =    24.7274   Anisotropy =     7.1131

     29  H    Isotropic =    25.0130   Anisotropy =     5.4947

     30  H    Isotropic =    28.5068   Anisotropy =    12.1420

     31  H    Isotropic =    28.5003   Anisotropy =    12.1400

     32  H    Isotropic =    25.0210   Anisotropy =     5.4704

     33  H    Isotropic =    24.7281   Anisotropy =     7.0206

     34  H    Isotropic =    25.8552   Anisotropy =    10.4361

     35  H    Isotropic =    24.6927   Anisotropy =     5.7414

     36  H    Isotropic =    25.7959   Anisotropy =    10.4634

     37  H    Isotropic =    24.7307   Anisotropy =     7.1115

     38  H    Isotropic =    25.0235   Anisotropy =     5.4933

  Exact polarizability: 410.141  -0.528 208.742   0.864  24.735 199.081
 Approx polarizability: 435.356   0.696 268.538  -0.517  25.559 257.823

                      1                      2                      3
                      A                      A                      A
 Frequencies --      8.4019                15.5637                27.6416
 Red. masses --      5.1642                 4.9938                 4.0629
 Frc consts  --      0.0002                 0.0007                 0.0018
 IR Inten    --      0.8834                 0.9525                 1.1358

                      4                      5                      6
                      A                      A                      A
 Frequencies --     35.7822                38.0267                66.2334
 Red. masses --      5.8001                 4.2653                 5.6021
 Frc consts  --      0.0044                 0.0036                 0.0145
 IR Inten    --      2.1179                 0.6148                 0.2907

                      7                      8                      9
                      A                      A                      A
 Frequencies --    152.2092               165.9602               185.0188
 Red. masses --      5.7073                 6.4039                 4.9851
 Frc consts  --      0.0779                 0.1039                 0.1005
 IR Inten    --      2.7357                 2.7634                 0.7908

                     10                     11                     12
                      A                      A                      A
 Frequencies --    191.5131               220.9678               303.9463
 Red. masses --      5.4151                 4.1808                 1.0377
 Frc consts  --      0.1170                 0.1203                 0.0565
 IR Inten    --      0.1669                 0.0007                34.0809

                     13                     14                     15
                      A                      A                      A
 Frequencies --    321.5994               338.1935               340.7812
 Red. masses --      1.0424                 4.7584                 4.7990
 Frc consts  --      0.0635                 0.3207                 0.3284
 IR Inten    --     32.9346                 0.1582                 4.9654

                     16                     17                     18
                      A                      A                      A
 Frequencies --    345.0518               358.1650               369.5892
 Red. masses --      5.4207                 6.1672                 4.7023
 Frc consts  --      0.3803                 0.4661                 0.3784
 IR Inten    --      7.5185                 1.0995                 1.0768

                     19                     20                     21
                      A                      A                      A
 Frequencies --    427.7478               428.1605               435.7172
 Red. masses --      3.1570                 3.1731                 3.6840
 Frc consts  --      0.3403                 0.3427                 0.4121
 IR Inten    --      0.4889                 0.4971                 8.6542

                     22                     23                     24
                      A                      A                      A
 Frequencies --    437.0787               465.9415               500.0575
 Red. masses --      3.7825                 3.2009                 3.0514
 Frc consts  --      0.4257                 0.4094                 0.4496
 IR Inten    --      0.4940                 0.3014               122.5039

                     25                     26                     27
                      A                      A                      A
 Frequencies --    514.4829               530.2674               538.8410
 Red. masses --      2.4256                 7.6475                 5.5686
 Frc consts  --      0.3783                 1.2670                 0.9526
 IR Inten    --     36.5087                19.2857                42.8374

                     28                     29                     30
                      A                      A                      A
 Frequencies --    598.8062               607.9728               615.3836
 Red. masses --      2.3807                 1.6909                 2.3643
 Frc consts  --      0.5029                 0.3683                 0.5275
 IR Inten    --    491.1181                87.3660               344.3820

                     31                     32                     33
                      A                      A                      A
 Frequencies --    616.3577               632.4229               654.8345
 Red. masses --      4.2727                 2.4589                 6.9247
 Frc consts  --      0.9563                 0.5794                 1.7495
 IR Inten    --     58.4050               101.2703                 0.8555

                     34                     35                     36
                      A                      A                      A
 Frequencies --    655.2380               690.3954               712.1493
 Red. masses --      6.9068                 2.6590                 4.9461
 Frc consts  --      1.7471                 0.7467                 1.4779
 IR Inten    --      0.0337                 3.1033                18.6672

                     37                     38                     39
                      A                      A                      A
 Frequencies --    725.9615               754.2577               771.8266
 Red. masses --      4.3652                 5.0678                 1.3599
 Frc consts  --      1.3554                 1.6987                 0.4773
 IR Inten    --      5.5520                11.3478                63.4804

                     40                     41                     42
                      A                      A                      A
 Frequencies --    776.4105               810.8660               820.6136
 Red. masses --      4.1586                 4.4286                 1.2545
 Frc consts  --      1.4770                 1.7156                 0.4977
 IR Inten    --      6.4798                 2.2097                 0.0579

                     43                     44                     45
                      A                      A                      A
 Frequencies --    821.2785               845.5795               848.4157
 Red. masses --      1.2531                 2.2962                 1.4511
 Frc consts  --      0.4980                 0.9673                 0.6154
 IR Inten    --      0.1381                41.3581                45.4919

                     46                     47                     48
                      A                      A                      A
 Frequencies --    850.5655               860.0171               862.5300
 Red. masses --      1.9358                 3.6852                 1.4070
 Frc consts  --      0.8251                 1.6059                 0.6167
 IR Inten    --    121.3688                15.2884                 0.0170

                     49                     50                     51
                      A                      A                      A
 Frequencies --    872.7880               944.5933               944.9797
 Red. masses --      6.6882                 1.3070                 1.3030
 Frc consts  --      3.0018                 0.6871                 0.6856
 IR Inten    --      0.9424                 1.2828                 1.4671

                     52                     53                     54
                      A                      A                      A
 Frequencies --    949.4909               949.7665               969.5412
 Red. masses --      1.3114                 1.3101                 1.2563
 Frc consts  --      0.6966                 0.6963                 0.6958
 IR Inten    --      0.0077                 0.0199                 0.0449

                     55                     56                     57
                      A                      A                      A
 Frequencies --    988.2669              1009.8302              1025.7430
 Red. masses --      2.9619                 6.0580                 2.6064
 Frc consts  --      1.7044                 3.6398                 1.6158
 IR Inten    --    168.1551                 0.5329                15.6923

                     58                     59                     60
                      A                      A                      A
 Frequencies --   1026.0038              1089.8392              1090.1511
 Red. masses --      2.5899                 1.4293                 1.4291
 Frc consts  --      1.6063                 1.0002                 1.0007
 IR Inten    --     29.5536                 5.3636                 5.0561

                     61                     62                     63
                      A                      A                      A
 Frequencies --   1112.6114              1142.8336              1148.6518
 Red. masses --      1.5317                 1.6927                 1.1798
 Frc consts  --      1.1171                 1.3025                 0.9172
 IR Inten    --      9.8547               299.7847                18.4262

                     64                     65                     66
                      A                      A                      A
 Frequencies --   1148.8230              1184.7785              1185.1432
 Red. masses --      1.1803                 1.1404                 1.1586
 Frc consts  --      0.9178                 0.9431                 0.9588
 IR Inten    --     19.7491                 6.7035                 1.7752

                     67                     68                     69
                      A                      A                      A
 Frequencies --   1195.2603              1237.5140              1242.6856
 Red. masses --      1.2291                 3.4108                 3.6862
 Frc consts  --      1.0346                 3.0776                 3.3539
 IR Inten    --      7.6151                19.1380              1302.4314

                     70                     71                     72
                      A                      A                      A
 Frequencies --   1291.6940              1304.5138              1317.3481
 Red. masses --      5.0201                 1.6206                 3.6725
 Frc consts  --      4.9349                 1.6249                 3.7550
 IR Inten    --     18.5863                94.2707                32.3164

                     73                     74                     75
                      A                      A                      A
 Frequencies --   1320.1816              1324.4148              1324.9364
 Red. masses --      4.3787                 1.6470                 1.6563
 Frc consts  --      4.4963                 1.7021                 1.7131
 IR Inten    --     44.7769                 1.1189                 0.8634

                     76                     77                     78
                      A                      A                      A
 Frequencies --   1363.0227              1363.1307              1366.5441
 Red. masses --      3.3554                 3.3225                 5.3697
 Frc consts  --      3.6729                 3.6374                 5.9081
 IR Inten    --      8.1734                 9.9010                73.1803

                     79                     80                     81
                      A                      A                      A
 Frequencies --   1475.3558              1475.7818              1489.0246
 Red. masses --      2.9801                 2.9640                 3.3254
 Frc consts  --      3.8218                 3.8034                 4.3441
 IR Inten    --      0.3783                 0.2707                 6.1997

                     82                     83                     84
                      A                      A                      A
 Frequencies --   1517.6623              1548.4319              1549.7567
 Red. masses --      2.4601                 2.6721                 2.6645
 Frc consts  --      3.3385                 3.7747                 3.7704
 IR Inten    --    578.5753               551.6792                55.6744

                     85                     86                     87
                      A                      A                      A
 Frequencies --   1631.9455              1633.4891              1633.6227
 Red. masses --      6.8779                 6.5412                 6.5393
 Frc consts  --     10.7924                10.2835                10.2821
 IR Inten    --    104.2343                 0.4430                 0.6312

                     88                     89                     90
                      A                      A                      A
 Frequencies --   1649.7729              1655.2510              1659.7996
 Red. masses --      3.1537                 1.5410                 1.6936
 Frc consts  --      5.0573                 2.4876                 2.7490
 IR Inten    --    183.3448                 6.0545                25.9445

                     91                     92                     93
                      A                      A                      A
 Frequencies --   1669.6483              1671.9648              3183.1685
 Red. masses --      2.5222                 3.4124                 1.0888
 Frc consts  --      4.1427                 5.6204                 6.5003
 IR Inten    --     38.6765               386.8616                24.8000

                     94                     95                     96
                      A                      A                      A
 Frequencies --   3183.8029              3184.3818              3184.8818
 Red. masses --      1.0889                 1.0887                 1.0888
 Frc consts  --      6.5034                 6.5047                 6.5071
 IR Inten    --     23.2346                25.2341                22.6266

                     97                     98                     99
                      A                      A                      A
 Frequencies --   3190.8989              3206.3630              3206.7781
 Red. masses --      1.0892                 1.0941                 1.0942
 Frc consts  --      6.5338                 6.6274                 6.6294
 IR Inten    --     18.9336                18.3682                20.1406

                    100                    101                    102
                      A                      A                      A
 Frequencies --   3208.1035              3208.3558              3218.9022
 Red. masses --      1.0944                 1.0945                 1.0917
 Frc consts  --      6.6364                 6.6380                 6.6647
 IR Inten    --      3.3818                 1.9435                 3.0267

                    103                    104                    105
                      A                      A                      A
 Frequencies --   3231.9449              3234.5410              3561.1290
 Red. masses --      1.0908                 1.0936                 1.0486
 Frc consts  --      6.7134                 6.7411                 7.8348
 IR Inten    --      6.0518                 1.8353                37.6379

                    106                    107                    108
                      A                      A                      A
 Frequencies --   3561.7164              3662.6949              3662.8533
 Red. masses --      1.0487                 1.0982                 1.0982
 Frc consts  --      7.8381                 8.6804                 8.6810
 IR Inten    --     34.0768                24.6035                24.3424

 - Thermochemistry -
 -------------------
 Temperature   298.150 Kelvin.  Pressure   1.00000 Atm.
 Atom     1 has atomic number  7 and mass  14.00307

 Molecular mass:   292.12118 amu.
 Principal axes and moments of inertia in atomic units:
                           1         2         3
     Eigenvalues --  1340.30221********************
           X            1.00000  -0.00140   0.00026
           Y            0.00093   0.78063   0.62500
           Z           -0.00108  -0.62500   0.78063
 This molecule is an asymmetric top.
 Rotational symmetry number  1.
 Warning -- assumption of classical behavior for rotation
           may cause significant error
 Rotational temperatures (Kelvin)      0.06462     0.00403     0.00402
 Rotational constants (GHZ):           1.34652     0.08388     0.08367
 Zero-point vibrational energy     794810.4 (Joules/Mol)
                                  189.96425 (Kcal/Mol)
 Warning -- explicit consideration of  31 degrees of freedom as
           vibrations may cause significant error
 Vibrational temperatures:     12.09    22.39    39.77    51.48    54.71
          (Kelvin)             95.30   219.00   238.78   266.20   275.54
                              317.92   437.31   462.71   486.58   490.31
                              496.45   515.32   531.76   615.43   616.03
                              626.90   628.86   670.39   719.47   740.23
                              762.94   775.27   861.55   874.74   885.40
                              886.80   909.92   942.16   942.74   993.33
                             1024.62  1044.50  1085.21  1110.49  1117.08
                             1166.66  1180.68  1181.64  1216.60  1220.68
                             1223.77  1237.37  1240.99  1255.75  1359.06
                             1359.62  1366.11  1366.50  1394.95  1421.90
                             1452.92  1475.82  1476.19  1568.04  1568.48
                             1600.80  1644.28  1652.65  1652.90  1704.63
                             1705.16  1719.71  1780.51  1787.95  1858.46
                             1876.90  1895.37  1899.45  1905.54  1906.29
                             1961.09  1961.24  1966.15  2122.71  2123.32
                             2142.37  2183.58  2227.85  2229.75  2348.01
                             2350.23  2350.42  2373.66  2381.54  2388.08
                             2402.25  2405.58  4579.87  4580.78  4581.62
                             4582.33  4590.99  4613.24  4613.84  4615.75
                             4616.11  4631.28  4650.05  4653.78  5123.67
                             5124.52  5269.80  5270.03

 Zero-point correction=                           0.302727 (Hartree/Particle)
 Thermal correction to Energy=                    0.321507
 Thermal correction to Enthalpy=                  0.322451
 Thermal correction to Gibbs Free Energy=         0.251752
 Sum of electronic and zero-point Energies=           -955.225580
 Sum of electronic and thermal Energies=              -955.206801
 Sum of electronic and thermal Enthalpies=            -955.205856
 Sum of electronic and thermal Free Energies=         -955.276555

                     E (Thermal)             CV                S
                      KCal/Mol        Cal/Mol-Kelvin    Cal/Mol-Kelvin
 Total                  201.749             74.897            148.799
 Electronic               0.000              0.000              0.000
 Translational            0.889              2.981             42.913
 Rotational               0.889              2.981             34.785
 Vibrational            199.971             68.936             71.100
 Vibration     1          0.593              1.987              8.357
 Vibration     2          0.593              1.986              7.132
 Vibration     3          0.593              1.984              5.992
 Vibration     4          0.594              1.982              5.480
 Vibration     5          0.594              1.982              5.359
 Vibration     6          0.598              1.970              4.262
 Vibration     7          0.619              1.900              2.644
 Vibration     8          0.624              1.884              2.481
 Vibration     9          0.631              1.860              2.277
 Vibration    10          0.634              1.852              2.213
 Vibration    11          0.648              1.809              1.951
 Vibration    12          0.695              1.666              1.395
 Vibration    13          0.707              1.632              1.302
 Vibration    14          0.718              1.599              1.221
 Vibration    15          0.720              1.594              1.208
 Vibration    16          0.723              1.585              1.189
 Vibration    17          0.733              1.558              1.130
 Vibration    18          0.742              1.535              1.081
 Vibration    19          0.789              1.410              0.866
 Vibration    20          0.790              1.409              0.865
 Vibration    21          0.796              1.392              0.840
 Vibration    22          0.797              1.389              0.836
 Vibration    23          0.823              1.326              0.749
 Vibration    24          0.855              1.250              0.658
 Vibration    25          0.870              1.218              0.623
 Vibration    26          0.885              1.183              0.587
 Vibration    27          0.894              1.164              0.568
 Vibration    28          0.957              1.034              0.452
 Vibration    29          0.967              1.015              0.436
 Vibration    30          0.975              0.999              0.424
 Vibration    31          0.976              0.997              0.422

                           ! Non-Optimized Parameters !
 Normal termination of Gaussian 16 at Fri Jul 19 14:30:08 2024.
 Gaussian 16:  ES64L-G16RevA.03 25-Dec-2016

 ----------------------------------------------------------------------
 # TD(NStates=10, Root=1) B3LYP/6-31G** SCRF=(Solvent=water) volume pop
 =NPA density=current Geom=AllCheck Guess=Read
 ----------------------------------------------------------------------

 Structure from the checkpoint file:  "WUPRYUDHUFLKFL-UHFFFAOYSA-N_conf_3_2.chk"
 ----------------------------------
 WUPRYUDHUFLKFL-UHFFFAOYSA-N_conf_3
 ----------------------------------
 Charge =  0 Multiplicity = 1

                         Standard orientation:
 ---------------------------------------------------------------------
 Center     Atomic      Atomic             Coordinates (Angstroms)
 Number     Number       Type             X           Y           Z
 ---------------------------------------------------------------------
      1          7           0       -7.464119   -0.683278    0.748428
      2          6           0       -6.197944   -0.291482    0.311361
      3          6           0       -5.542704    0.809247    0.895372
      4          6           0       -4.252927    1.161492    0.504284
      5          6           0       -3.596747    0.420469   -0.477995
      6          8           0       -2.341688    0.828051   -0.932780
      7          6           0       -1.205524    0.318371   -0.343641
      8          6           0       -0.000056    0.781723   -0.874583
      9          6           0        1.207943    0.324089   -0.344385
     10          8           0        2.341532    0.841679   -0.931484
     11          6           0        3.598326    0.432021   -0.482939
     12          6           0        4.225731   -0.663172   -1.075963
     13          6           0        5.514010   -1.021863   -0.686041
     14          6           0        6.198009   -0.288712    0.302386
     15          7           0        7.513158   -0.605544    0.645523
     16          6           0        5.547641    0.814439    0.886899
     17          6           0        4.258536    1.171104    0.497618
     18          6           0        1.223967   -0.593752    0.712610
     19          6           0        0.004995   -1.040951    1.223944
     20          6           0       -1.216400   -0.599460    0.713553
     21          6           0       -4.229984   -0.670415   -1.072213
     22          6           0       -5.519346   -1.023787   -0.681109
     23          1           0       -8.003841   -1.206459    0.070533
     24          1           0       -8.018196    0.057191    1.159565
     25          1           0       -6.051666    1.391929    1.658235
     26          1           0       -3.756054    2.016655    0.951533
     27          1           0       -0.002030    1.492594   -1.693230
     28          1           0        3.705248   -1.228757   -1.842468
     29          1           0        5.999053   -1.874558   -1.153346
     30          1           0        7.772444   -1.570479    0.484768
     31          1           0        7.793514   -0.305102    1.570489
     32          1           0        6.059445    1.395799    1.648930
     33          1           0        3.762662    2.024098    0.949973
     34          1           0        2.161554   -0.947495    1.122417
     35          1           0        0.006933   -1.753044    2.044131
     36          1           0       -2.151874   -0.958158    1.123839
     37          1           0       -3.715631   -1.232944   -1.844954
     38          1           0       -6.008726   -1.873517   -1.148886
 ---------------------------------------------------------------------

 SCF Done:  E(RB3LYP) =  -955.528307490     A.U. after    1 cycles

 Excitation energies and oscillator strengths:

 Excited State   1:      Singlet-A      4.5642 eV  271.65 nm  f=0.0006  <S**2>=0.000
      72 -> 81        -0.10825
      73 -> 82         0.10800
      76 -> 79         0.33920
      77 -> 78         0.59720
 This state for optimization and/or second-order correction.
 Total Energy, E(TD-HF/TD-DFT) =  -955.360576911
 Copying the excited state density for this state as the 1-particle RhoCI density.

 Excited State   2:      Singlet-A      4.5713 eV  271.22 nm  f=0.1371  <S**2>=0.000
      72 -> 82         0.10716
      73 -> 81        -0.11276
      76 -> 78         0.58507
      77 -> 79         0.35821

 Excited State   3:      Singlet-A      4.8867 eV  253.72 nm  f=0.2636  <S**2>=0.000
      74 -> 83        -0.18886
      75 -> 78         0.64504
      75 -> 80         0.12879
      76 -> 79         0.10447

 Excited State   4:      Singlet-A      4.9109 eV  252.47 nm  f=0.0239  <S**2>=0.000
      76 -> 78        -0.33782
      76 -> 79         0.17038
      76 -> 80        -0.27367
      77 -> 78        -0.13778
      77 -> 79         0.48783
      77 -> 80        -0.12408

 Excited State   5:      Singlet-A      4.9149 eV  252.26 nm  f=0.0124  <S**2>=0.000
      75 -> 78        -0.13895
      76 -> 78         0.14080
      76 -> 79         0.48014
      76 -> 80         0.11516
      77 -> 78        -0.31135
      77 -> 79        -0.16603
      77 -> 80        -0.28319

 Excited State   6:      Singlet-A      5.1836 eV  239.19 nm  f=0.0006  <S**2>=0.000
      74 -> 78        -0.14298
      75 -> 79         0.68383

 Excited State   7:      Singlet-A      5.2452 eV  236.37 nm  f=0.0005  <S**2>=0.000
      76 -> 79         0.30531
      77 -> 78        -0.11618
      77 -> 80         0.61671

 Excited State   8:      Singlet-A      5.2546 eV  235.95 nm  f=0.0040  <S**2>=0.000
      76 -> 78        -0.11277
      76 -> 80         0.62305
      77 -> 79         0.28917

 Excited State   9:      Singlet-A      5.3546 eV  231.55 nm  f=0.0483  <S**2>=0.000
      74 -> 79         0.14356
      74 -> 83        -0.22169
      75 -> 78        -0.19113
      75 -> 80         0.59126
      76 -> 82         0.10462
      77 -> 81        -0.15131

 Excited State  10:      Singlet-A      5.3671 eV  231.01 nm  f=0.0018  <S**2>=0.000
      77 -> 82         0.15045
      77 -> 83         0.68248

 The electronic state is 1-A.
 Alpha  occ. eigenvalues --  -19.18614 -19.18613 -14.33842 -14.33839 -10.25538
 Alpha  occ. eigenvalues --  -10.25536 -10.23953 -10.23953 -10.23193 -10.23191
 Alpha  occ. eigenvalues --  -10.19601 -10.19395 -10.19391 -10.19388 -10.19386
 Alpha  occ. eigenvalues --  -10.18918 -10.18911 -10.18910 -10.18909 -10.18469
 Alpha  occ. eigenvalues --  -10.18414 -10.18412  -1.07347  -1.07195  -0.91698
 Alpha  occ. eigenvalues --   -0.91692  -0.85826  -0.84057  -0.83339  -0.75872
 Alpha  occ. eigenvalues --   -0.75377  -0.75035  -0.75032  -0.71539  -0.71322
 Alpha  occ. eigenvalues --   -0.63846  -0.62156  -0.62152  -0.61478  -0.60657
 Alpha  occ. eigenvalues --   -0.57330  -0.55327  -0.51925  -0.51553  -0.51185
 Alpha  occ. eigenvalues --   -0.51155  -0.49773  -0.49565  -0.48080  -0.44885
 Alpha  occ. eigenvalues --   -0.44824  -0.44516  -0.44389  -0.43513  -0.42335
 Alpha  occ. eigenvalues --   -0.42262  -0.41909  -0.41175  -0.40183  -0.39504
 Alpha  occ. eigenvalues --   -0.38345  -0.38066  -0.37550  -0.37526  -0.36042
 Alpha  occ. eigenvalues --   -0.35135  -0.34901  -0.33950  -0.30813  -0.30466
 Alpha  occ. eigenvalues --   -0.30308  -0.25727  -0.25650  -0.23490  -0.22044
 Alpha  occ. eigenvalues --   -0.20473  -0.20415
 Alpha virt. eigenvalues --   -0.01375  -0.00652   0.00615   0.01117   0.01312
 Alpha virt. eigenvalues --    0.01520   0.08732   0.09019   0.10060   0.10527
 Alpha virt. eigenvalues --    0.10725   0.12977   0.12997   0.14818   0.15536

 Mulliken charges:
               1
     1  N   -0.613559
     2  C    0.270035
     3  C   -0.147924
     4  C   -0.134179
     5  C    0.310991
     6  O   -0.590326
     7  C    0.315998
     8  C   -0.197508
     9  C    0.316392
    10  O   -0.591681
    11  C    0.306771
    12  C   -0.130700
    13  C   -0.148066
    14  C    0.269608
    15  N   -0.622834
    16  C   -0.147696
    17  C   -0.131900
    18  C   -0.143295
    19  C   -0.152814
    20  C   -0.142982
    21  C   -0.133279
    22  C   -0.148282
    23  H    0.302880
    24  H    0.302846
    25  H    0.101609
    26  H    0.102320
    27  H    0.088994
    28  H    0.102607
    29  H    0.101096
    30  H    0.299252
    31  H    0.299261
    32  H    0.101078
    33  H    0.102342
    34  H    0.094511
    35  H    0.089637
    36  H    0.094859
    37  H    0.102508
    38  H    0.101431
 Sum of Mulliken charges =  -0.00000

 Dipole moment (field-independent basis, Debye):
    X=             -1.5734    Y=             -2.9861    Z=              3.2797  Tot=              4.7062
 Quadrupole moment (field-independent basis, Debye-Ang):
   XX=             -6.4489   YY=           -122.0229   ZZ=           -124.1469
   XY=            -10.7223   XZ=             12.5694   YZ=              6.3866

 Summary of Natural Population Analysis:

                                       Natural Population
                Natural  -----------------------------------------------
    Atom  No    Charge         Core      Valence    Rydberg      Total
 -----------------------------------------------------------------------
      N    1   -0.74985      1.99948     5.73968    0.01068     7.74985
      C    2    0.17601      1.99898     3.80757    0.01744     5.82399
      C    3   -0.30062      1.99906     4.28571    0.01585     6.30062
      C    4   -0.30875      1.99900     4.29301    0.01674     6.30875
      C    5    0.31946      1.99870     3.65885    0.02300     5.68054
      O    6   -0.52212      1.99970     6.51100    0.01142     8.52212
      C    7    0.31673      1.99875     3.66238    0.02214     5.68327
      C    8   -0.37930      1.99895     4.36436    0.01599     6.37930
      C    9    0.31750      1.99875     3.66164    0.02212     5.68250
      O   10   -0.52354      1.99970     6.51242    0.01142     8.52354
      C   11    0.30904      1.99870     3.66932    0.02294     5.69096
      C   12   -0.30205      1.99900     4.28677    0.01627     6.30205
      C   13   -0.30021      1.99905     4.28572    0.01544     6.30021
      C   14    0.17399      1.99899     3.80963    0.01740     5.82601
      N   15   -0.76600      1.99949     5.75561    0.01090     7.76600
      C   16   -0.29905      1.99905     4.28458    0.01542     6.29905
      C   17   -0.30262      1.99900     4.28729    0.01633     6.30262
      C   18   -0.35101      1.99901     4.33973    0.01226     6.35101
      C   19   -0.25878      1.99914     4.24359    0.01605     6.25878
      C   20   -0.35053      1.99901     4.33922    0.01230     6.35053
      C   21   -0.30807      1.99900     4.29236    0.01671     6.30807
      C   22   -0.30164      1.99906     4.28671    0.01588     6.30164
      H   23    0.42761      0.00000     0.56983    0.00256     0.57239
      H   24    0.42753      0.00000     0.56991    0.00255     0.57247
      H   25    0.24665      0.00000     0.75173    0.00162     0.75335
      H   26    0.25505      0.00000     0.74335    0.00160     0.74495
      H   27    0.25312      0.00000     0.74474    0.00214     0.74688
      H   28    0.25508      0.00000     0.74334    0.00158     0.74492
      H   29    0.24664      0.00000     0.75176    0.00160     0.75336
      H   30    0.42570      0.00000     0.57176    0.00253     0.57430
      H   31    0.42571      0.00000     0.57176    0.00253     0.57429
      H   32    0.24654      0.00000     0.75186    0.00160     0.75346
      H   33    0.25498      0.00000     0.74343    0.00159     0.74502
      H   34    0.25128      0.00000     0.74728    0.00144     0.74872
      H   35    0.24242      0.00000     0.75621    0.00137     0.75758
      H   36    0.25136      0.00000     0.74720    0.00144     0.74864
      H   37    0.25513      0.00000     0.74328    0.00159     0.74487
      H   38    0.24663      0.00000     0.75175    0.00162     0.75337
 =======================================================================
   * Total *   -0.00000     43.97956   109.63634    0.38410   154.00000

 Normal termination of Gaussian 16 at Fri Jul 19 14:55:50 2024.
