 Gaussian 16, Revision A.03,

 -------------------------------------------------------
 # opt=CalcFc B3LYP/6-31G** SCRF=(Solvent=water) scf=xqc
 -------------------------------------------------------

 ----------------------------------
 WUPRYUDHUFLKFL-UHFFFAOYSA-N_conf_1
 ----------------------------------
 Symbolic Z-matrix:
 Charge =  0 Multiplicity = 1

 SCF Done:  E(RB3LYP) =  -955.522251771     A.U. after   12 cycles
 SCF Done:  E(RB3LYP) =  -955.526995836     A.U. after   13 cycles
 SCF Done:  E(RB3LYP) =  -955.527468275     A.U. after   13 cycles
 SCF Done:  E(RB3LYP) =  -955.525832030     A.U. after   11 cycles
 SCF Done:  E(RB3LYP) =  -955.528050249     A.U. after   11 cycles
 SCF Done:  E(RB3LYP) =  -955.527816523     A.U. after   12 cycles
 SCF Done:  E(RB3LYP) =  -955.528320503     A.U. after   10 cycles
 SCF Done:  E(RB3LYP) =  -955.528406067     A.U. after   12 cycles
 SCF Done:  E(RB3LYP) =  -955.528437475     A.U. after    9 cycles
 SCF Done:  E(RB3LYP) =  -955.528453316     A.U. after    9 cycles
 SCF Done:  E(RB3LYP) =  -955.528459129     A.U. after    9 cycles
 SCF Done:  E(RB3LYP) =  -955.528474108     A.U. after    9 cycles
 SCF Done:  E(RB3LYP) =  -955.528508103     A.U. after   10 cycles
 SCF Done:  E(RB3LYP) =  -955.528510831     A.U. after    7 cycles
 SCF Done:  E(RB3LYP) =  -955.528513167     A.U. after    9 cycles
 SCF Done:  E(RB3LYP) =  -955.528513271     A.U. after    7 cycles
 SCF Done:  E(RB3LYP) =  -955.528513282     A.U. after    6 cycles
 Optimization completed.
    -- Stationary point found.
 Normal termination of Gaussian 16 at Fri Jul 19 11:25:59 2024.

 ----------------------------------------------------------------------
 # freq B3LYP/6-31G** SCRF=(Solvent=water) volume NMR pop=NPA density=c
 urrent Geom=AllCheck Guess=Read
 ----------------------------------------------------------------------

 Structure from the checkpoint file:  "WUPRYUDHUFLKFL-UHFFFAOYSA-N_conf_1_1.chk"
 ----------------------------------
 WUPRYUDHUFLKFL-UHFFFAOYSA-N_conf_1
 ----------------------------------
 Charge =  0 Multiplicity = 1

 SCF Done:  E(RB3LYP) =  -955.528513282     A.U. after    1 cycles

      1  N    Isotropic =   199.9001   Anisotropy =    74.1529

      2  C    Isotropic =    51.5035   Anisotropy =   161.8358

      3  C    Isotropic =    81.4020   Anisotropy =   131.0892

      4  C    Isotropic =    72.5412   Anisotropy =   148.0367

      5  C    Isotropic =    52.6158   Anisotropy =   101.3681

      6  O    Isotropic =   184.0247   Anisotropy =    54.2159

      7  C    Isotropic =    35.2440   Anisotropy =   121.3282

      8  C    Isotropic =    95.2018   Anisotropy =   116.1746

      9  C    Isotropic =    35.0886   Anisotropy =   120.2573

     10  O    Isotropic =   182.4924   Anisotropy =    51.9327

     11  C    Isotropic =    52.4190   Anisotropy =   100.3132

     12  C    Isotropic =    72.6502   Anisotropy =   147.1786

     13  C    Isotropic =    81.5238   Anisotropy =   130.5709

     14  C    Isotropic =    51.6079   Anisotropy =   161.3507

     15  N    Isotropic =   199.8781   Anisotropy =    73.8141

     16  C    Isotropic =    81.5245   Anisotropy =   130.5709

     17  C    Isotropic =    72.6500   Anisotropy =   147.1745

     18  C    Isotropic =    91.5834   Anisotropy =   136.4562

     19  C    Isotropic =    66.5783   Anisotropy =   168.0474

     20  C    Isotropic =    87.5886   Anisotropy =   127.2265

     21  C    Isotropic =    72.5422   Anisotropy =   148.0258

     22  C    Isotropic =    81.4021   Anisotropy =   131.0898

     23  H    Isotropic =    28.4802   Anisotropy =    12.0526

     24  H    Isotropic =    28.4802   Anisotropy =    12.0525

     25  H    Isotropic =    24.9921   Anisotropy =     5.3056

     26  H    Isotropic =    24.7046   Anisotropy =     6.7278

     27  H    Isotropic =    25.8568   Anisotropy =    12.9881

     28  H    Isotropic =    24.8176   Anisotropy =     7.3534

     29  H    Isotropic =    25.0590   Anisotropy =     5.5715

     30  H    Isotropic =    28.5264   Anisotropy =    12.2413

     31  H    Isotropic =    28.5265   Anisotropy =    12.2412

     32  H    Isotropic =    25.0590   Anisotropy =     5.5711

     33  H    Isotropic =    24.8174   Anisotropy =     7.3515

     34  H    Isotropic =    25.8413   Anisotropy =    10.1910

     35  H    Isotropic =    24.5138   Anisotropy =     4.7139

     36  H    Isotropic =    25.0822   Anisotropy =     4.9903

     37  H    Isotropic =    24.7046   Anisotropy =     6.7257

     38  H    Isotropic =    24.9921   Anisotropy =     5.3052

  Exact polarizability: 349.023 -28.060 236.522  -0.029  -0.033 229.084
 Approx polarizability: 383.849 -35.033 288.713  -0.036  -0.044 289.249

                      1                      2                      3
                      A                      A                      A
 Frequencies --     10.0414                14.8470                25.9470
 Red. masses --      4.5887                 4.7270                 3.9473
 Frc consts  --      0.0003                 0.0006                 0.0016
 IR Inten    --      0.4428                 0.1552                 0.4375

                      4                      5                      6
                      A                      A                      A
 Frequencies --     31.8322                38.1383                58.3636
 Red. masses --      5.7988                 4.3063                 5.8394
 Frc consts  --      0.0035                 0.0037                 0.0117
 IR Inten    --      0.7645                 2.8386                 1.9537

                      7                      8                      9
                      A                      A                      A
 Frequencies --    135.2711               168.8865               194.5498
 Red. masses --      5.5253                 5.0595                 5.4211
 Frc consts  --      0.0596                 0.0850                 0.1209
 IR Inten    --      1.5878                 3.9563                 0.1451

                     10                     11                     12
                      A                      A                      A
 Frequencies --    217.4702               239.7997               307.9297
 Red. masses --      4.2159                 6.4969                 1.0385
 Frc consts  --      0.1175                 0.2201                 0.0580
 IR Inten    --      0.0003                 0.1106                33.3462

                     13                     14                     15
                      A                      A                      A
 Frequencies --    314.0426               319.0525               339.5879
 Red. masses --      1.0362                 5.5270                 4.8313
 Frc consts  --      0.0602                 0.3315                 0.3283
 IR Inten    --     34.1101                 1.7836                 0.0037

                     16                     17                     18
                      A                      A                      A
 Frequencies --    342.1589               354.8020               374.2366
 Red. masses --      4.8249                 5.4813                 4.9176
 Frc consts  --      0.3328                 0.4065                 0.4058
 IR Inten    --      4.3007                 1.0850                14.5663

                     19                     20                     21
                      A                      A                      A
 Frequencies --    426.7027               428.1411               436.9090
 Red. masses --      3.1774                 3.1565                 3.6712
 Frc consts  --      0.3409                 0.3409                 0.4129
 IR Inten    --      0.2144                 0.3328                 9.6880

                     22                     23                     24
                      A                      A                      A
 Frequencies --    437.6008               463.3852               498.8215
 Red. masses --      3.7882                 3.2340                 3.0494
 Frc consts  --      0.4274                 0.4091                 0.4470
 IR Inten    --      0.0784                 0.1496                37.9191

                     25                     26                     27
                      A                      A                      A
 Frequencies --    514.3669               532.3263               542.0598
 Red. masses --      2.3960                 6.7725                 7.6100
 Frc consts  --      0.3735                 1.1307                 1.3174
 IR Inten    --    154.1622                27.7051                 3.6043

                     28                     29                     30
                      A                      A                      A
 Frequencies --    591.9380               605.5709               609.4946
 Red. masses --      2.6576                 1.6004                 2.0683
 Frc consts  --      0.5486                 0.3458                 0.4527
 IR Inten    --      2.3004               972.0504                26.0016

                     31                     32                     33
                      A                      A                      A
 Frequencies --    616.0413               627.4363               654.8710
 Red. masses --      4.9776                 2.4911                 6.9247
 Frc consts  --      1.1130                 0.5778                 1.7497
 IR Inten    --      0.0055                71.9736                 0.7870

                     34                     35                     36
                      A                      A                      A
 Frequencies --    655.3288               690.0629               707.2605
 Red. masses --      6.9063                 2.6728                 4.6233
 Frc consts  --      1.7475                 0.7499                 1.3626
 IR Inten    --      0.0666                 2.9058                16.5451

                     37                     38                     39
                      A                      A                      A
 Frequencies --    725.9576               754.0890               774.5819
 Red. masses --      4.5173                 4.7110                 1.3465
 Frc consts  --      1.4026                 1.5784                 0.4760
 IR Inten    --      4.6955                22.4126                62.7846

                     40                     41                     42
                      A                      A                      A
 Frequencies --    779.9381               816.2715               820.7421
 Red. masses --      4.4075                 4.2551                 1.2542
 Frc consts  --      1.5797                 1.6704                 0.4978
 IR Inten    --      1.1806                 4.5839                 0.1681

                     43                     44                     45
                      A                      A                      A
 Frequencies --    821.3362               844.9665               846.9633
 Red. masses --      1.2536                 2.1904                 1.4639
 Frc consts  --      0.4983                 0.9214                 0.6187
 IR Inten    --      0.4068                81.1277                44.3379

                     46                     47                     48
                      A                      A                      A
 Frequencies --    850.1207               861.9778               865.0291
 Red. masses --      1.9257                 4.1512                 1.4072
 Frc consts  --      0.8200                 1.8173                 0.6204
 IR Inten    --     61.7422                31.4311                 0.0807

                     49                     50                     51
                      A                      A                      A
 Frequencies --    876.1974               943.9658               945.1459
 Red. masses --      6.8292                 1.3115                 1.3049
 Frc consts  --      3.0891                 0.6885                 0.6868
 IR Inten    --     10.2384                 2.8249                 0.6025

                     52                     53                     54
                      A                      A                      A
 Frequencies --    949.5009               950.1864               969.6595
 Red. masses --      1.3108                 1.3090                 1.2508
 Frc consts  --      0.6963                 0.6963                 0.6929
 IR Inten    --      0.0134                 0.0313                 0.0599

                     55                     56                     57
                      A                      A                      A
 Frequencies --    992.8158              1009.8380              1025.6861
 Red. masses --      3.0400                 6.0702                 2.6112
 Frc consts  --      1.7655                 3.6472                 1.6185
 IR Inten    --    181.0050                 0.6542                31.3624

                     58                     59                     60
                      A                      A                      A
 Frequencies --   1026.0438              1089.4109              1091.3114
 Red. masses --      2.6076                 1.4286                 1.4285
 Frc consts  --      1.6174                 0.9990                 1.0023
 IR Inten    --      7.8268                 5.7901                 5.5332

                     61                     62                     63
                      A                      A                      A
 Frequencies --   1105.1635              1148.1805              1148.3616
 Red. masses --      1.5033                 1.6428                 1.1799
 Frc consts  --      1.0818                 1.2760                 0.9168
 IR Inten    --     14.2857               220.1953                19.1979

                     64                     65                     66
                      A                      A                      A
 Frequencies --   1148.8576              1181.6361              1184.7217
 Red. masses --      1.1803                 1.1620                 1.1634
 Frc consts  --      0.9179                 0.9559                 0.9621
 IR Inten    --     19.1789                 0.8718                 0.5799

                     67                     68                     69
                      A                      A                      A
 Frequencies --   1192.1228              1235.4466              1242.6829
 Red. masses --      1.2381                 3.2733                 3.5600
 Frc consts  --      1.0367                 2.9437                 3.2391
 IR Inten    --     17.9940                77.9083               922.7547

                     70                     71                     72
                      A                      A                      A
 Frequencies --   1288.3174              1306.8000              1318.1317
 Red. masses --      5.5270                 1.6184                 3.6203
 Frc consts  --      5.4048                 1.6283                 3.7061
 IR Inten    --    352.1323                74.9249                33.4760

                     73                     74                     75
                      A                      A                      A
 Frequencies --   1319.0730              1324.4688              1324.9719
 Red. masses --      4.1868                 1.6537                 1.6499
 Frc consts  --      4.2922                 1.7092                 1.7066
 IR Inten    --      9.8676                 0.8489                 1.0086

                     76                     77                     78
                      A                      A                      A
 Frequencies --   1363.0667              1363.4034              1371.1582
 Red. masses --      3.3418                 3.3365                 5.3413
 Frc consts  --      3.6582                 3.6542                 5.9166
 IR Inten    --      8.7087                 9.7479                42.8943

                     79                     80                     81
                      A                      A                      A
 Frequencies --   1475.6625              1475.7210              1484.5656
 Red. masses --      2.9723                 2.9657                 3.3442
 Frc consts  --      3.8134                 3.8053                 4.3425
 IR Inten    --      0.2502                 0.2834                42.7304

                     82                     83                     84
                      A                      A                      A
 Frequencies --   1518.6367              1548.9630              1549.2773
 Red. masses --      2.4829                 2.6769                 2.6648
 Frc consts  --      3.3738                 3.7841                 3.7685
 IR Inten    --    497.8938               378.5309               234.7398

                     85                     86                     87
                      A                      A                      A
 Frequencies --   1633.4887              1633.6633              1637.4882
 Red. masses --      6.5313                 6.5427                 6.7322
 Frc consts  --     10.2680                10.2880                10.6356
 IR Inten    --      0.0354                 0.0398               145.8590

                     88                     89                     90
                      A                      A                      A
 Frequencies --   1647.9851              1656.3053              1658.4756
 Red. masses --      4.3679                 1.5867                 1.6286
 Frc consts  --      6.9892                 2.5646                 2.6393
 IR Inten    --    177.0094                19.4448                29.7199

                     91                     92                     93
                      A                      A                      A
 Frequencies --   1670.0701              1670.9794              3184.0876
 Red. masses --      2.4468                 2.7625                 1.0890
 Frc consts  --      4.0208                 4.5446                 6.5049
 IR Inten    --    139.3738               228.7540                22.3603

                     94                     95                     96
                      A                      A                      A
 Frequencies --   3184.1015              3184.5752              3184.6103
 Red. masses --      1.0889                 1.0884                 1.0891
 Frc consts  --      6.5043                 6.5035                 6.5078
 IR Inten    --     26.4888                35.7149                12.3421

                     97                     98                     99
                      A                      A                      A
 Frequencies --   3191.7378              3206.8745              3206.9899
 Red. masses --      1.0883                 1.0942                 1.0941
 Frc consts  --      6.5319                 6.6297                 6.6298
 IR Inten    --     18.0756                20.0129                20.4276

                    100                    101                    102
                      A                      A                      A
 Frequencies --   3208.4150              3208.4733              3216.5866
 Red. masses --      1.0945                 1.0945                 1.0937
 Frc consts  --      6.6382                 6.6381                 6.6670
 IR Inten    --      1.8014                 1.8945                15.1059

                    103                    104                    105
                      A                      A                      A
 Frequencies --   3233.6484              3234.3386              3561.2736
 Red. masses --      1.0920                 1.0913                 1.0486
 Frc consts  --      6.7273                 6.7262                 7.8356
 IR Inten    --      1.5401                 2.1714                34.4103

                    106                    107                    108
                      A                      A                      A
 Frequencies --   3561.4170              3663.0191              3663.1479
 Red. masses --      1.0486                 1.0984                 1.0982
 Frc consts  --      7.8362                 8.6831                 8.6827
 IR Inten    --     38.6215                25.0163                25.2298

 - Thermochemistry -
 -------------------
 Temperature   298.150 Kelvin.  Pressure   1.00000 Atm.
 Atom     1 has atomic number  7 and mass  14.00307

 Molecular mass:   292.12118 amu.
 Principal axes and moments of inertia in atomic units:
                           1         2         3
     Eigenvalues --  3026.18223********************
           X            0.99999  -0.00496  -0.00000
           Y            0.00496   0.99999  -0.00001
           Z            0.00000   0.00001   1.00000
 This molecule is an asymmetric top.
 Rotational symmetry number  1.
 Warning -- assumption of classical behavior for rotation
           may cause significant error
 Rotational temperatures (Kelvin)      0.02862     0.00528     0.00477
 Rotational constants (GHZ):           0.59638     0.10991     0.09939
 Zero-point vibrational energy     794787.9 (Joules/Mol)
                                  189.95886 (Kcal/Mol)
 Warning -- explicit consideration of  31 degrees of freedom as
           vibrations may cause significant error
 Vibrational temperatures:     14.45    21.36    37.33    45.80    54.87
          (Kelvin)             83.97   194.62   242.99   279.91   312.89
                              345.02   443.04   451.84   459.05   488.59
                              492.29   510.48   538.44   613.93   616.00
                              628.61   629.61   666.71   717.69   740.06
                              765.90   779.90   851.67   871.28   876.93
                              886.35   902.74   942.21   942.87   992.85
                             1017.59  1044.49  1084.97  1114.45  1122.16
                             1174.43  1180.86  1181.72  1215.72  1218.59
                             1223.13  1240.19  1244.58  1260.65  1358.16
                             1359.85  1366.12  1367.11  1395.12  1428.44
                             1452.93  1475.73  1476.25  1567.42  1570.15
                             1590.08  1651.98  1652.24  1652.95  1700.11
                             1704.55  1715.20  1777.53  1787.94  1853.60
                             1880.19  1896.50  1897.85  1905.62  1906.34
                             1961.15  1961.63  1972.79  2123.15  2123.23
                             2135.96  2184.98  2228.61  2229.06  2350.23
                             2350.48  2355.98  2371.08  2383.05  2386.18
                             2402.86  2404.17  4581.19  4581.21  4581.89
                             4581.94  4592.20  4613.98  4614.14  4616.19
                             4616.28  4627.95  4652.50  4653.49  5123.88
                             5124.08  5270.27  5270.45

 Zero-point correction=                           0.302719 (Hartree/Particle)
 Thermal correction to Energy=                    0.321503
 Thermal correction to Enthalpy=                  0.322447
 Thermal correction to Gibbs Free Energy=         0.251473
 Sum of electronic and zero-point Energies=           -955.225795
 Sum of electronic and thermal Energies=              -955.207010
 Sum of electronic and thermal Enthalpies=            -955.206066
 Sum of electronic and thermal Free Energies=         -955.277040

                     E (Thermal)             CV                S
                      KCal/Mol        Cal/Mol-Kelvin    Cal/Mol-Kelvin
 Total                  201.746             74.910            149.378
 Electronic               0.000              0.000              0.000
 Translational            0.889              2.981             42.913
 Rotational               0.889              2.981             35.155
 Vibrational            199.969             68.949             71.310
 Vibration     1          0.593              1.987              8.003
 Vibration     2          0.593              1.986              7.226
 Vibration     3          0.593              1.985              6.117
 Vibration     4          0.594              1.983              5.712
 Vibration     5          0.594              1.982              5.354
 Vibration     6          0.596              1.974              4.512
 Vibration     7          0.613              1.918              2.870
 Vibration     8          0.625              1.881              2.448
 Vibration     9          0.635              1.847              2.184
 Vibration    10          0.646              1.814              1.980
 Vibration    11          0.657              1.780              1.804
 Vibration    12          0.698              1.659              1.373
 Vibration    13          0.702              1.647              1.341
 Vibration    14          0.705              1.637              1.315
 Vibration    15          0.719              1.596              1.214
 Vibration    16          0.721              1.591              1.202
 Vibration    17          0.731              1.565              1.145
 Vibration    18          0.745              1.525              1.062
 Vibration    19          0.788              1.412              0.869
 Vibration    20          0.790              1.409              0.865
 Vibration    21          0.797              1.390              0.836
 Vibration    22          0.798              1.388              0.834
 Vibration    23          0.821              1.331              0.756
 Vibration    24          0.854              1.253              0.661
 Vibration    25          0.869              1.218              0.623
 Vibration    26          0.887              1.178              0.582
 Vibration    27          0.897              1.157              0.561
 Vibration    28          0.949              1.049              0.464
 Vibration    29          0.964              1.020              0.440
 Vibration    30          0.968              1.012              0.434
 Vibration    31          0.976              0.998              0.423

 Optimization completed.
    -- Stationary point found.
 Normal termination of Gaussian 16 at Fri Jul 19 11:54:05 2024.
 Gaussian 16:  ES64L-G16RevA.03 25-Dec-2016

 ----------------------------------------------------------------------
 # TD(NStates=10, Root=1) B3LYP/6-31G** SCRF=(Solvent=water) volume pop
 =NPA density=current Geom=AllCheck Guess=Read
 ----------------------------------------------------------------------

 Structure from the checkpoint file:  "WUPRYUDHUFLKFL-UHFFFAOYSA-N_conf_1_2.chk"
 ----------------------------------
 WUPRYUDHUFLKFL-UHFFFAOYSA-N_conf_1
 ----------------------------------
 Charge =  0 Multiplicity = 1

                         Standard orientation:
 ---------------------------------------------------------------------
 Center     Atomic      Atomic             Coordinates (Angstroms)
 Number     Number       Type             X           Y           Z
 ---------------------------------------------------------------------
      1          7           0        5.967879   -2.693168   -0.000053
      2          6           0        5.097111   -1.602870   -0.000078
      3          6           0        4.674569   -1.018343    1.208945
      4          6           0        3.859651    0.111388    1.208518
      5          6           0        3.452901    0.675596   -0.000061
      6          8           0        2.709011    1.856764   -0.000061
      7          6           0        1.333041    1.797842    0.000093
      8          6           0        0.613318    0.604238    0.000085
      9          6           0       -0.786944    0.652409    0.000240
     10          8           0       -1.408804   -0.577534    0.000281
     11          6           0       -2.803124   -0.643204    0.000095
     12          6           0       -3.494040   -0.722275   -1.208536
     13          6           0       -4.878480   -0.876519   -1.209166
     14          6           0       -5.595618   -0.954054   -0.000281
     15          7           0       -6.988239   -1.042717   -0.000447
     16          6           0       -4.878720   -0.877310    1.208793
     17          6           0       -3.494277   -0.723054    1.208534
     18          6           0       -1.467858    1.871745    0.000398
     19          6           0       -0.719009    3.053434    0.000390
     20          6           0        0.671511    3.034225    0.000242
     21          6           0        3.860518    0.112034   -1.208643
     22          6           0        4.675458   -1.017683   -1.209090
     23          1           0        5.932243   -3.264740   -0.834495
     24          1           0        5.931617   -3.265197    0.834048
     25          1           0        4.992021   -1.452031    2.153203
     26          1           0        3.540672    0.560469    2.143805
     27          1           0        1.111204   -0.357159   -0.000037
     28          1           0       -2.945226   -0.672273   -2.143678
     29          1           0       -5.412401   -0.940173   -2.153283
     30          1           0       -7.386700   -1.454864    0.833661
     31          1           0       -7.386538   -1.454258   -0.834932
     32          1           0       -5.412828   -0.941572    2.152763
     33          1           0       -2.945642   -0.673649    2.143812
     34          1           0       -2.550052    1.900445    0.000530
     35          1           0       -1.237987    4.007479    0.000512
     36          1           0        1.254621    3.948509    0.000236
     37          1           0        3.542206    0.561620   -2.143913
     38          1           0        4.993602   -1.450852   -2.153351
 ---------------------------------------------------------------------

 SCF Done:  E(RB3LYP) =  -955.528513282     A.U. after    1 cycles

 Excitation energies and oscillator strengths:

 Excited State   1:      Singlet-A      4.5829 eV  270.54 nm  f=0.0887  <S**2>=0.000
      73 -> 81         0.10836
      73 -> 82         0.11388
      76 -> 78        -0.32774
      76 -> 79        -0.23361
      77 -> 78         0.50417
      77 -> 79         0.21953
 This state for optimization and/or second-order correction.
 Total Energy, E(TD-HF/TD-DFT) =  -955.360095779
 Copying the excited state density for this state as the 1-particle RhoCI density.

 Excited State   2:      Singlet-A      4.6045 eV  269.27 nm  f=0.0608  <S**2>=0.000
      72 -> 81         0.12274
      72 -> 82        -0.10232
      76 -> 78         0.40000
      76 -> 79        -0.34783
      77 -> 78         0.25310
      77 -> 79        -0.34944

 Excited State   3:      Singlet-A      4.8691 eV  254.63 nm  f=0.0050  <S**2>=0.000
      76 -> 78         0.39165
      76 -> 79         0.34339
      76 -> 80        -0.17660
      77 -> 78         0.29936
      77 -> 79         0.27748
      77 -> 80        -0.16408

 Excited State   4:      Singlet-A      4.9136 eV  252.33 nm  f=0.1610  <S**2>=0.000
      74 -> 79        -0.10922
      74 -> 83        -0.18029
      75 -> 78         0.63900
      75 -> 79         0.10321
      75 -> 80        -0.16752

 Excited State   5:      Singlet-A      4.9312 eV  251.43 nm  f=0.0074  <S**2>=0.000
      76 -> 78         0.22933
      76 -> 79        -0.35803
      76 -> 80        -0.14570
      77 -> 78        -0.25988
      77 -> 79         0.42284
      77 -> 80         0.19380

 Excited State   6:      Singlet-A      5.1218 eV  242.07 nm  f=0.0354  <S**2>=0.000
      75 -> 79         0.68895

 Excited State   7:      Singlet-A      5.1402 eV  241.20 nm  f=0.0048  <S**2>=0.000
      76 -> 79         0.18914
      76 -> 80        -0.36638
      77 -> 79        -0.18565
      77 -> 80         0.53345

 Excited State   8:      Singlet-A      5.2233 eV  237.37 nm  f=0.0001  <S**2>=0.000
      76 -> 78         0.11661
      76 -> 79         0.14127
      76 -> 80         0.54770
      77 -> 79         0.13566
      77 -> 80         0.36792

 Excited State   9:      Singlet-A      5.2823 eV  234.72 nm  f=0.0286  <S**2>=0.000
      74 -> 78        -0.16426
      74 -> 83         0.20458
      75 -> 78         0.24185
      75 -> 80         0.59618

 Excited State  10:      Singlet-A      5.3834 eV  230.31 nm  f=0.0018  <S**2>=0.000
      76 -> 83         0.31403
      77 -> 83         0.62408

 The electronic state is 1-A.
 Alpha  occ. eigenvalues --  -19.18650 -19.18610 -14.33840 -14.33839 -10.25553
 Alpha  occ. eigenvalues --  -10.25534 -10.23955 -10.23942 -10.23196 -10.23182
 Alpha  occ. eigenvalues --  -10.19558 -10.19402 -10.19401 -10.19386 -10.19386
 Alpha  occ. eigenvalues --  -10.18911 -10.18911 -10.18904 -10.18904 -10.18579
 Alpha  occ. eigenvalues --  -10.18357 -10.18321  -1.07353  -1.07193  -0.91699
 Alpha  occ. eigenvalues --   -0.91695  -0.85803  -0.84092  -0.83309  -0.75884
 Alpha  occ. eigenvalues --   -0.75275  -0.75038  -0.75028  -0.71914  -0.71022
 Alpha  occ. eigenvalues --   -0.63373  -0.62856  -0.62161  -0.62151  -0.59358
 Alpha  occ. eigenvalues --   -0.57522  -0.55292  -0.52089  -0.51563  -0.51195
 Alpha  occ. eigenvalues --   -0.51160  -0.50216  -0.49396  -0.48087  -0.44832
 Alpha  occ. eigenvalues --   -0.44603  -0.44519  -0.44384  -0.43459  -0.42337
 Alpha  occ. eigenvalues --   -0.42261  -0.42140  -0.41053  -0.40163  -0.39573
 Alpha  occ. eigenvalues --   -0.38393  -0.37889  -0.37618  -0.37563  -0.35922
 Alpha  occ. eigenvalues --   -0.35131  -0.34885  -0.33969  -0.30691  -0.30506
 Alpha  occ. eigenvalues --   -0.30350  -0.25746  -0.25678  -0.23708  -0.21853
 Alpha  occ. eigenvalues --   -0.20476  -0.20409
 Alpha virt. eigenvalues --   -0.01162  -0.00774   0.00514   0.01143   0.01287
 Alpha virt. eigenvalues --    0.01554   0.08808   0.08974   0.10113   0.10467
 Alpha virt. eigenvalues --    0.10789   0.12973   0.13000   0.15010   0.15376

 Mulliken charges:
               1
     1  N   -0.676117
     2  C    0.271412
     3  C   -0.143564
     4  C   -0.115024
     5  C    0.282139
     6  O   -0.596824
     7  C    0.319704
     8  C   -0.189728
     9  C    0.311355
    10  O   -0.583413
    11  C    0.329862
    12  C   -0.152988
    13  C   -0.156245
    14  C    0.266891
    15  N   -0.560991
    16  C   -0.156231
    17  C   -0.153012
    18  C   -0.140837
    19  C   -0.138536
    20  C   -0.141987
    21  C   -0.115039
    22  C   -0.143569
    23  H    0.279796
    24  H    0.279796
    25  H    0.101255
    26  H    0.105681
    27  H    0.100868
    28  H    0.095396
    29  H    0.097105
    30  H    0.320962
    31  H    0.320962
    32  H    0.097109
    33  H    0.095391
    34  H    0.099259
    35  H    0.094025
    36  H    0.088208
    37  H    0.105677
    38  H    0.101253
 Sum of Mulliken charges =  -0.00000

 Dipole moment (field-independent basis, Debye):
    X=             -8.0774    Y=             -6.5124    Z=             -0.0019  Tot=             10.3757
 Quadrupole moment (field-independent basis, Debye-Ang):
   XX=            -50.1088   YY=           -116.2331   ZZ=           -116.9225
   XY=             -0.6885   XZ=              0.0006   YZ=             -0.0006

 Summary of Natural Population Analysis:

                                       Natural Population
                Natural  -----------------------------------------------
    Atom  No    Charge         Core      Valence    Rydberg      Total
 -----------------------------------------------------------------------
      N    1   -0.85639      1.99952     5.84510    0.01177     7.85639
      C    2    0.16281      1.99899     3.82113    0.01706     5.83719
      C    3   -0.28606      1.99905     4.27428    0.01273     6.28606
      C    4   -0.26234      1.99899     4.24975    0.01359     6.26234
      C    5    0.24544      1.99870     3.73311    0.02275     5.75456
      O    6   -0.52835      1.99971     6.51721    0.01143     8.52835
      C    7    0.32437      1.99876     3.65512    0.02175     5.67563
      C    8   -0.39143      1.99894     4.37960    0.01289     6.39143
      C    9    0.31988      1.99875     3.65901    0.02237     5.68012
      O   10   -0.51493      1.99969     6.50380    0.01144     8.51493
      C   11    0.37492      1.99870     3.60309    0.02329     5.62508
      C   12   -0.35372      1.99901     4.33530    0.01941     6.35372
      C   13   -0.32111      1.99907     4.30323    0.01881     6.32111
      C   14    0.18373      1.99897     3.79944    0.01785     5.81627
      N   15   -0.65895      1.99946     5.65007    0.00942     7.65895
      C   16   -0.32107      1.99907     4.30320    0.01881     6.32107
      C   17   -0.35373      1.99901     4.33531    0.01941     6.35373
      C   18   -0.34578      1.99901     4.33451    0.01226     6.34578
      C   19   -0.24970      1.99913     4.23535    0.01521     6.24970
      C   20   -0.32769      1.99903     4.31446    0.01420     6.32769
      C   21   -0.26232      1.99899     4.24974    0.01359     6.26232
      C   22   -0.28606      1.99905     4.27428    0.01273     6.28606
      H   23    0.41595      0.00000     0.58171    0.00234     0.58405
      H   24    0.41595      0.00000     0.58171    0.00234     0.58405
      H   25    0.24742      0.00000     0.75108    0.00150     0.75258
      H   26    0.25600      0.00000     0.74245    0.00156     0.74400
      H   27    0.25915      0.00000     0.73895    0.00190     0.74085
      H   28    0.25188      0.00000     0.74649    0.00162     0.74812
      H   29    0.24364      0.00000     0.75461    0.00175     0.75636
      H   30    0.43629      0.00000     0.56099    0.00272     0.56371
      H   31    0.43629      0.00000     0.56099    0.00272     0.56371
      H   32    0.24364      0.00000     0.75461    0.00175     0.75636
      H   33    0.25188      0.00000     0.74649    0.00162     0.74812
      H   34    0.25345      0.00000     0.74510    0.00145     0.74655
      H   35    0.24530      0.00000     0.75336    0.00134     0.75470
      H   36    0.24822      0.00000     0.75005    0.00173     0.75178
      H   37    0.25599      0.00000     0.74245    0.00156     0.74401
      H   38    0.24742      0.00000     0.75109    0.00150     0.75258
 =======================================================================
   * Total *   -0.00000     43.97957   109.63823    0.38221   154.00000

 Normal termination of Gaussian 16 at Fri Jul 19 12:19:54 2024.
