 Gaussian 16, Revision A.03,

 -------------------------------------------------------
 # opt=CalcFc B3LYP/6-31G** SCRF=(Solvent=water) scf=xqc
 -------------------------------------------------------

 ----------------------------------
 WUPRYUDHUFLKFL-UHFFFAOYSA-N_conf_0
 ----------------------------------
 Symbolic Z-matrix:
 Charge =  0 Multiplicity = 1

 SCF Done:  E(RB3LYP) =  -955.522163004     A.U. after   12 cycles
 SCF Done:  E(RB3LYP) =  -955.526755613     A.U. after   11 cycles
 SCF Done:  E(RB3LYP) =  -955.527835127     A.U. after   12 cycles
 SCF Done:  E(RB3LYP) =  -955.527349525     A.U. after   13 cycles
 SCF Done:  E(RB3LYP) =  -955.513034861     A.U. after   11 cycles
 SCF Done:  E(RB3LYP) =  -955.513665001     A.U. after   11 cycles
 SCF Done:  E(RB3LYP) =  -955.527921920     A.U. after    8 cycles
 SCF Done:  E(RB3LYP) =  -955.528192196     A.U. after   12 cycles
 SCF Done:  E(RB3LYP) =  -955.528213935     A.U. after   12 cycles
 SCF Done:  E(RB3LYP) =  -955.528295756     A.U. after   10 cycles
 SCF Done:  E(RB3LYP) =  -955.528316585     A.U. after    7 cycles
 SCF Done:  E(RB3LYP) =  -955.528287729     A.U. after    9 cycles
 SCF Done:  E(RB3LYP) =  -955.528292396     A.U. after    9 cycles
 SCF Done:  E(RB3LYP) =  -955.528290647     A.U. after    5 cycles
 SCF Done:  E(RB3LYP) =  -955.528282749     A.U. after    7 cycles
 SCF Done:  E(RB3LYP) =  -955.528276861     A.U. after    9 cycles
 SCF Done:  E(RB3LYP) =  -955.528315804     A.U. after    9 cycles
 SCF Done:  E(RB3LYP) =  -955.528315575     A.U. after    7 cycles
 Optimization completed.
    -- Stationary point found.
 Normal termination of Gaussian 16 at Fri Jul 19 12:23:28 2024.

 ----------------------------------------------------------------------
 # freq B3LYP/6-31G** SCRF=(Solvent=water) volume NMR pop=NPA density=c
 urrent Geom=AllCheck Guess=Read
 ----------------------------------------------------------------------

 Structure from the checkpoint file:  "WUPRYUDHUFLKFL-UHFFFAOYSA-N_conf_0_1.chk"
 ----------------------------------
 WUPRYUDHUFLKFL-UHFFFAOYSA-N_conf_0
 ----------------------------------
 Charge =  0 Multiplicity = 1

 SCF Done:  E(RB3LYP) =  -955.528315575     A.U. after    1 cycles

      1  N    Isotropic =   199.9509   Anisotropy =    74.1246

      2  C    Isotropic =    51.5693   Anisotropy =   161.5127

      3  C    Isotropic =    81.4764   Anisotropy =   130.8117

      4  C    Isotropic =    72.5015   Anisotropy =   147.6341

      5  C    Isotropic =    52.3885   Anisotropy =   100.5946

      6  O    Isotropic =   183.6226   Anisotropy =    53.9358

      7  C    Isotropic =    35.3514   Anisotropy =   121.2592

      8  C    Isotropic =    92.6461   Anisotropy =   106.0527

      9  C    Isotropic =    35.2992   Anisotropy =   121.3334

     10  O    Isotropic =   183.3908   Anisotropy =    53.0927

     11  C    Isotropic =    52.3378   Anisotropy =   100.5595

     12  C    Isotropic =    72.5508   Anisotropy =   147.3801

     13  C    Isotropic =    81.4421   Anisotropy =   130.6404

     14  C    Isotropic =    51.5677   Anisotropy =   161.4483

     15  N    Isotropic =   199.8647   Anisotropy =    73.6331

     16  C    Isotropic =    81.5234   Anisotropy =   130.7497

     17  C    Isotropic =    72.5291   Anisotropy =   147.3603

     18  C    Isotropic =    91.0122   Anisotropy =   137.1661

     19  C    Isotropic =    66.6807   Anisotropy =   167.5686

     20  C    Isotropic =    91.0948   Anisotropy =   137.0907

     21  C    Isotropic =    72.6065   Anisotropy =   147.1815

     22  C    Isotropic =    81.4349   Anisotropy =   130.5152

     23  H    Isotropic =    28.5019   Anisotropy =    12.1231

     24  H    Isotropic =    28.4976   Anisotropy =    12.1492

     25  H    Isotropic =    25.0161   Anisotropy =     5.4889

     26  H    Isotropic =    24.7240   Anisotropy =     7.1142

     27  H    Isotropic =    25.0902   Anisotropy =     7.1683

     28  H    Isotropic =    24.7299   Anisotropy =     7.0892

     29  H    Isotropic =    25.0213   Anisotropy =     5.4812

     30  H    Isotropic =    28.5036   Anisotropy =    12.2406

     31  H    Isotropic =    28.5088   Anisotropy =    12.2193

     32  H    Isotropic =    25.0258   Anisotropy =     5.4727

     33  H    Isotropic =    24.7324   Anisotropy =     7.0773

     34  H    Isotropic =    25.7960   Anisotropy =    10.5162

     35  H    Isotropic =    24.6949   Anisotropy =     5.7477

     36  H    Isotropic =    25.8563   Anisotropy =    10.4197

     37  H    Isotropic =    24.7300   Anisotropy =     7.0221

     38  H    Isotropic =    25.0227   Anisotropy =     5.4730

  Exact polarizability: 409.950   0.202 207.133   0.933 -24.913 200.779
 Approx polarizability: 435.134  -1.129 266.852  -0.415 -25.743 259.728

                      1                      2                      3
                      A                      A                      A
 Frequencies --      9.6519                17.3951                29.9618
 Red. masses --      5.1852                 5.1081                 4.0082
 Frc consts  --      0.0003                 0.0009                 0.0021
 IR Inten    --      0.7417                 0.9106                 1.2627

                      4                      5                      6
                      A                      A                      A
 Frequencies --     35.8901                37.5412                66.2908
 Red. masses --      5.7831                 4.2271                 5.6031
 Frc consts  --      0.0044                 0.0035                 0.0145
 IR Inten    --      2.1448                 0.6962                 0.2826

                      7                      8                      9
                      A                      A                      A
 Frequencies --    152.5130               166.0105               185.3147
 Red. masses --      5.7202                 6.3835                 4.9904
 Frc consts  --      0.0784                 0.1037                 0.1010
 IR Inten    --      2.7309                 2.8456                 0.7617

                     10                     11                     12
                      A                      A                      A
 Frequencies --    191.3414               220.8024               308.0925
 Red. masses --      5.4269                 4.1805                 1.0390
 Frc consts  --      0.1171                 0.1201                 0.0581
 IR Inten    --      0.1677                 0.0008                33.7350

                     13                     14                     15
                      A                      A                      A
 Frequencies --    323.2600               338.7772               341.5870
 Red. masses --      1.0396                 4.8107                 4.8343
 Frc consts  --      0.0640                 0.3253                 0.3323
 IR Inten    --     33.2429                 0.1189                 4.5022

                     16                     17                     18
                      A                      A                      A
 Frequencies --    345.1911               358.3222               369.6723
 Red. masses --      5.4140                 6.1821                 4.6976
 Frc consts  --      0.3801                 0.4677                 0.3782
 IR Inten    --      7.6641                 1.0470                 1.1227

                     19                     20                     21
                      A                      A                      A
 Frequencies --    428.0226               428.3309               436.3052
 Red. masses --      3.1660                 3.1768                 3.6762
 Frc consts  --      0.3417                 0.3434                 0.4123
 IR Inten    --      0.3962                 0.5416                 8.6402

                     22                     23                     24
                      A                      A                      A
 Frequencies --    437.8810               466.1290               499.9100
 Red. masses --      3.7671                 3.2074                 3.0454
 Frc consts  --      0.4256                 0.4106                 0.4484
 IR Inten    --      0.8106                 0.2703               125.4804

                     25                     26                     27
                      A                      A                      A
 Frequencies --    514.4384               530.3346               539.1275
 Red. masses --      2.4225                 7.6517                 5.5875
 Frc consts  --      0.3777                 1.2680                 0.9569
 IR Inten    --     37.2783                19.2462                42.2202

                     28                     29                     30
                      A                      A                      A
 Frequencies --    598.3188               607.0395               615.3652
 Red. masses --      2.3018                 1.6558                 2.2820
 Frc consts  --      0.4855                 0.3595                 0.5091
 IR Inten    --    522.0793                92.0467               373.9653

                     31                     32                     33
                      A                      A                      A
 Frequencies --    615.7960               632.1411               654.9195
 Red. masses --      5.0361                 2.5162                 6.9233
 Frc consts  --      1.1252                 0.5924                 1.7496
 IR Inten    --      0.1447                90.0944                 0.8598

                     34                     35                     36
                      A                      A                      A
 Frequencies --    655.3118               690.0503               712.2934
 Red. masses --      6.9051                 2.6710                 4.9584
 Frc consts  --      1.7471                 0.7494                 1.4822
 IR Inten    --      0.0157                 3.0027                19.2881

                     37                     38                     39
                      A                      A                      A
 Frequencies --    725.9359               754.3221               771.6593
 Red. masses --      4.3852                 5.0788                 1.3575
 Frc consts  --      1.3616                 1.7026                 0.4763
 IR Inten    --      5.2712                11.1391                63.4356

                     40                     41                     42
                      A                      A                      A
 Frequencies --    776.5988               810.8442               821.2577
 Red. masses --      4.1724                 4.4395                 1.2539
 Frc consts  --      1.4826                 1.7197                 0.4983
 IR Inten    --      6.2771                 2.4247                 0.0861

                     43                     44                     45
                      A                      A                      A
 Frequencies --    821.7804               845.7329               848.4453
 Red. masses --      1.2529                 2.3001                 1.4481
 Frc consts  --      0.4985                 0.9693                 0.6142
 IR Inten    --      0.1357                41.9250                44.9438

                     46                     47                     48
                      A                      A                      A
 Frequencies --    850.9687               860.1921               862.2923
 Red. masses --      1.9339                 3.6703                 1.4042
 Frc consts  --      0.8251                 1.6001                 0.6152
 IR Inten    --    120.3452                15.4413                 0.0060

                     49                     50                     51
                      A                      A                      A
 Frequencies --    872.7512               944.8979               945.4072
 Red. masses --      6.6799                 1.3056                 1.3024
 Frc consts  --      2.9978                 0.6868                 0.6858
 IR Inten    --      0.9336                 1.3594                 1.3348

                     52                     53                     54
                      A                      A                      A
 Frequencies --    949.8718               950.1679               969.6097
 Red. masses --      1.3104                 1.3096                 1.2561
 Frc consts  --      0.6966                 0.6966                 0.6958
 IR Inten    --      0.0072                 0.0203                 0.0391

                     55                     56                     57
                      A                      A                      A
 Frequencies --    988.1537              1009.8647              1025.9843
 Red. masses --      2.9622                 6.0583                 2.6072
 Frc consts  --      1.7041                 3.6402                 1.6170
 IR Inten    --    169.2715                 0.5278                17.2500

                     58                     59                     60
                      A                      A                      A
 Frequencies --   1026.2935              1089.9244              1091.1702
 Red. masses --      2.5929                 1.4291                 1.4291
 Frc consts  --      1.6091                 1.0003                 1.0025
 IR Inten    --     27.9845                 5.2283                 5.1752

                     61                     62                     63
                      A                      A                      A
 Frequencies --   1112.8156              1142.6972              1148.8209
 Red. masses --      1.5321                 1.6938                 1.1803
 Frc consts  --      1.1178                 1.3031                 0.9178
 IR Inten    --      9.8610               300.7080                17.9711

                     64                     65                     66
                      A                      A                      A
 Frequencies --   1148.9205              1185.0392              1185.3827
 Red. masses --      1.1805                 1.1422                 1.1603
 Frc consts  --      0.9181                 0.9451                 0.9606
 IR Inten    --     20.3394                 6.9573                 2.0934

                     67                     68                     69
                      A                      A                      A
 Frequencies --   1195.5151              1237.4081              1242.3537
 Red. masses --      1.2287                 3.3955                 3.6780
 Frc consts  --      1.0347                 3.0633                 3.3447
 IR Inten    --      7.9823                19.4507              1297.0079

                     70                     71                     72
                      A                      A                      A
 Frequencies --   1291.4950              1304.5752              1317.6916
 Red. masses --      5.0653                 1.6180                 3.6776
 Frc consts  --      4.9779                 1.6224                 3.7622
 IR Inten    --     19.0625                92.5392                34.2326

                     73                     74                     75
                      A                      A                      A
 Frequencies --   1320.4063              1324.6769              1325.2528
 Red. masses --      4.3390                 1.6495                 1.6659
 Frc consts  --      4.4572                 1.7054                 1.7239
 IR Inten    --     44.2618                 1.1269                 0.9128

                     76                     77                     78
                      A                      A                      A
 Frequencies --   1363.0686              1363.4853              1366.6743
 Red. masses --      3.3472                 3.2904                 5.3654
 Frc consts  --      3.6641                 3.6041                 5.9044
 IR Inten    --      8.8037                 9.2523                72.8058

                     79                     80                     81
                      A                      A                      A
 Frequencies --   1475.5665              1476.2015              1489.0303
 Red. masses --      2.9760                 2.9504                 3.3223
 Frc consts  --      3.8177                 3.7881                 4.3401
 IR Inten    --      0.3361                 0.2673                 6.1097

                     82                     83                     84
                      A                      A                      A
 Frequencies --   1517.7995              1548.5567              1549.9026
 Red. masses --      2.4588                 2.6730                 2.6653
 Frc consts  --      3.3373                 3.7767                 3.7723
 IR Inten    --    578.4577               545.3107                61.3405

                     85                     86                     87
                      A                      A                      A
 Frequencies --   1632.0316              1633.5889              1633.7515
 Red. masses --      6.8788                 6.5408                 6.5424
 Frc consts  --     10.7949                10.2842                10.2887
 IR Inten    --    104.5121                 0.1184                 0.5949

                     88                     89                     90
                      A                      A                      A
 Frequencies --   1650.0183              1655.7152              1660.1987
 Red. masses --      3.2718                 1.5683                 1.6796
 Frc consts  --      5.2482                 2.5331                 2.7276
 IR Inten    --    180.9357                 4.3819                26.0459

                     91                     92                     93
                      A                      A                      A
 Frequencies --   1669.7717              1672.0284              3183.7713
 Red. masses --      2.4498                 3.3318                 1.0888
 Frc consts  --      4.0243                 5.4880                 6.5027
 IR Inten    --     39.7123               389.9221                24.7791

                     94                     95                     96
                      A                      A                      A
 Frequencies --   3184.0349              3184.4147              3184.5853
 Red. masses --      1.0888                 1.0888                 1.0888
 Frc consts  --      6.5034                 6.5053                 6.5059
 IR Inten    --     25.5025                21.9329                23.3645

                     97                     98                     99
                      A                      A                      A
 Frequencies --   3190.8778              3206.6812              3206.7478
 Red. masses --      1.0892                 1.0941                 1.0941
 Frc consts  --      6.5338                 6.6288                 6.6290
 IR Inten    --     18.9209                19.2043                20.4361

                    100                    101                    102
                      A                      A                      A
 Frequencies --   3208.2021              3208.3330              3219.1509
 Red. masses --      1.0945                 1.0945                 1.0917
 Frc consts  --      6.6372                 6.6377                 6.6657
 IR Inten    --      1.9791                 2.2865                 3.0601

                    103                    104                    105
                      A                      A                      A
 Frequencies --   3232.0956              3234.7694              3561.9439
 Red. masses --      1.0909                 1.0935                 1.0486
 Frc consts  --      6.7143                 6.7417                 7.8383
 IR Inten    --      5.9170                 1.9149                46.2359

                    106                    107                    108
                      A                      A                      A
 Frequencies --   3561.9569              3663.5462              3663.6192
 Red. masses --      1.0486                 1.0982                 1.0982
 Frc consts  --      7.8387                 8.6846                 8.6848
 IR Inten    --     25.7575                24.5333                24.6976

 - Thermochemistry -
 -------------------
 Temperature   298.150 Kelvin.  Pressure   1.00000 Atm.
 Atom     1 has atomic number  7 and mass  14.00307

 Molecular mass:   292.12118 amu.
 Principal axes and moments of inertia in atomic units:
                           1         2         3
     Eigenvalues --  1341.72450********************
           X            1.00000   0.00139   0.00020
           Y           -0.00092   0.75943  -0.65059
           Z           -0.00106   0.65059   0.75943
 This molecule is an asymmetric top.
 Rotational symmetry number  1.
 Warning -- assumption of classical behavior for rotation
           may cause significant error
 Rotational temperatures (Kelvin)      0.06455     0.00403     0.00402
 Rotational constants (GHZ):           1.34509     0.08392     0.08371
 Zero-point vibrational energy     794970.1 (Joules/Mol)
                                  190.00242 (Kcal/Mol)
 Warning -- explicit consideration of  31 degrees of freedom as
           vibrations may cause significant error
 Vibrational temperatures:     13.89    25.03    43.11    51.64    54.01
          (Kelvin)             95.38   219.43   238.85   266.63   275.30
                              317.69   443.28   465.10   487.42   491.47
                              496.65   515.55   531.88   615.83   616.27
                              627.75   630.01   670.66   719.26   740.16
                              763.03   775.68   860.85   873.39   885.37
                              885.99   909.51   942.28   942.85   992.83
                             1024.83  1044.46  1085.30  1110.25  1117.35
                             1166.62  1181.61  1182.36  1216.82  1220.72
                             1224.35  1237.62  1240.65  1255.69  1359.50
                             1360.23  1366.65  1367.08  1395.05  1421.73
                             1452.97  1476.16  1476.61  1568.16  1569.95
                             1601.09  1644.09  1652.90  1653.04  1705.01
                             1705.50  1720.08  1780.35  1787.47  1858.17
                             1876.99  1895.86  1899.77  1905.91  1906.74
                             1961.15  1961.75  1966.34  2123.01  2123.92
                             2142.38  2183.78  2228.03  2229.96  2348.13
                             2350.37  2350.60  2374.01  2382.20  2388.66
                             2402.43  2405.68  4580.74  4581.12  4581.66
                             4581.91  4590.96  4613.70  4613.79  4615.89
                             4616.08  4631.64  4650.26  4654.11  5124.84
                             5124.86  5271.03  5271.13

 Zero-point correction=                           0.302788 (Hartree/Particle)
 Thermal correction to Energy=                    0.321545
 Thermal correction to Enthalpy=                  0.322489
 Thermal correction to Gibbs Free Energy=         0.252117
 Sum of electronic and zero-point Energies=           -955.225527
 Sum of electronic and thermal Energies=              -955.206770
 Sum of electronic and thermal Enthalpies=            -955.205826
 Sum of electronic and thermal Free Energies=         -955.276198

                     E (Thermal)             CV                S
                      KCal/Mol        Cal/Mol-Kelvin    Cal/Mol-Kelvin
 Total                  201.773             74.874            148.111
 Electronic               0.000              0.000              0.000
 Translational            0.889              2.981             42.913
 Rotational               0.889              2.981             34.785
 Vibrational            199.995             68.912             70.412
 Vibration     1          0.593              1.987              8.081
 Vibration     2          0.593              1.986              6.911
 Vibration     3          0.594              1.984              5.832
 Vibration     4          0.594              1.982              5.474
 Vibration     5          0.594              1.982              5.385
 Vibration     6          0.598              1.970              4.261
 Vibration     7          0.619              1.900              2.641
 Vibration     8          0.624              1.884              2.480
 Vibration     9          0.631              1.860              2.274
 Vibration    10          0.634              1.852              2.215
 Vibration    11          0.648              1.809              1.953
 Vibration    12          0.698              1.658              1.373
 Vibration    13          0.708              1.629              1.294
 Vibration    14          0.719              1.598              1.218
 Vibration    15          0.721              1.592              1.205
 Vibration    16          0.724              1.585              1.188
 Vibration    17          0.733              1.558              1.129
 Vibration    18          0.742              1.535              1.081
 Vibration    19          0.790              1.409              0.865
 Vibration    20          0.790              1.409              0.864
 Vibration    21          0.797              1.391              0.838
 Vibration    22          0.798              1.388              0.833
 Vibration    23          0.823              1.325              0.748
 Vibration    24          0.855              1.250              0.658
 Vibration    25          0.869              1.218              0.623
 Vibration    26          0.885              1.183              0.586
 Vibration    27          0.894              1.164              0.567
 Vibration    28          0.956              1.035              0.453
 Vibration    29          0.966              1.017              0.438
 Vibration    30          0.975              0.999              0.424
 Vibration    31          0.975              0.998              0.423

                           ! Non-Optimized Parameters !
 Normal termination of Gaussian 16 at Fri Jul 19 12:49:44 2024.
 Gaussian 16:  ES64L-G16RevA.03 25-Dec-2016

 ----------------------------------------------------------------------
 # TD(NStates=10, Root=1) B3LYP/6-31G** SCRF=(Solvent=water) volume pop
 =NPA density=current Geom=AllCheck Guess=Read
 ----------------------------------------------------------------------

 Structure from the checkpoint file:  "WUPRYUDHUFLKFL-UHFFFAOYSA-N_conf_0_2.chk"
 ----------------------------------
 WUPRYUDHUFLKFL-UHFFFAOYSA-N_conf_0
 ----------------------------------
 Charge =  0 Multiplicity = 1

                         Standard orientation:
 ---------------------------------------------------------------------
 Center     Atomic      Atomic             Coordinates (Angstroms)
 Number     Number       Type             X           Y           Z
 ---------------------------------------------------------------------
      1          7           0        7.512903    0.607658    0.643122
      2          6           0        6.197440    0.288999    0.303772
      3          6           0        5.518833    1.003659   -0.701591
      4          6           0        4.230174    0.641572   -1.087272
      5          6           0        3.597994   -0.439422   -0.473959
      6          8           0        2.341555   -0.854580   -0.918879
      7          6           0        1.207280   -0.323794   -0.344938
      8          6           0        0.000195   -0.799969   -0.861234
      9          6           0       -1.206210   -0.324470   -0.343930
     10          8           0       -2.342025   -0.854540   -0.915960
     11          6           0       -3.596457   -0.436250   -0.468457
     12          6           0       -4.237615    0.630678   -1.097045
     13          6           0       -5.525977    0.992884   -0.710540
     14          6           0       -6.194548    0.294494    0.312833
     15          7           0       -7.458824    0.697995    0.744055
     16          6           0       -5.531450   -0.782213    0.931437
     17          6           0       -4.243270   -1.143985    0.543884
     18          6           0       -1.219693    0.624655    0.685204
     19          6           0        0.000447    1.083974    1.182228
     20          6           0        1.220732    0.625087    0.684242
     21          6           0        4.252635   -1.159879    0.524282
     22          6           0        5.541331   -0.798657    0.910559
     23          1           0        7.791685    0.319564    1.572401
     24          1           0        7.775613    1.569078    0.467202
     25          1           0        6.008612    1.844801   -1.184497
     26          1           0        3.712992    1.193252   -1.865967
     27          1           0        0.000025   -1.534636   -1.658562
     28          1           0       -3.730229    1.166604   -1.893016
     29          1           0       -6.023557    1.822175   -1.205829
     30          1           0       -8.009918   -0.029236    1.182009
     31          1           0       -8.002342    1.198287    0.052287
     32          1           0       -6.031969   -1.338528    1.719122
     33          1           0       -3.740399   -1.980991    1.017874
     34          1           0       -2.156427    0.991888    1.085011
     35          1           0        0.000732    1.820097    1.980928
     36          1           0        2.157115    0.993375    1.083667
     37          1           0        3.752822   -2.002060    0.992372
     38          1           0        6.049412   -1.364462    1.686621
 ---------------------------------------------------------------------

 SCF Done:  E(RB3LYP) =  -955.528315575     A.U. after    1 cycles

 Excitation energies and oscillator strengths:

 Excited State   1:      Singlet-A      4.5631 eV  271.71 nm  f=0.0006  <S**2>=0.000
      72 -> 81         0.10799
      73 -> 82        -0.10816
      76 -> 79        -0.33928
      77 -> 78         0.59653
 This state for optimization and/or second-order correction.
 Total Energy, E(TD-HF/TD-DFT) =  -955.360623712
 Copying the excited state density for this state as the 1-particle RhoCI density.

 Excited State   2:      Singlet-A      4.5703 eV  271.28 nm  f=0.1369  <S**2>=0.000
      72 -> 82        -0.10730
      73 -> 81         0.11249
      76 -> 78         0.58426
      77 -> 79        -0.35837

 Excited State   3:      Singlet-A      4.8867 eV  253.72 nm  f=0.2668  <S**2>=0.000
      74 -> 83         0.19052
      75 -> 78         0.65076
      75 -> 80         0.12946

 Excited State   4:      Singlet-A      4.9107 eV  252.48 nm  f=0.0296  <S**2>=0.000
      76 -> 78         0.36499
      76 -> 80         0.29531
      77 -> 79         0.51395

 Excited State   5:      Singlet-A      4.9131 eV  252.36 nm  f=0.0038  <S**2>=0.000
      76 -> 79         0.51531
      77 -> 78         0.34265
      77 -> 80         0.31148

 Excited State   6:      Singlet-A      5.1830 eV  239.21 nm  f=0.0005  <S**2>=0.000
      74 -> 78        -0.14305
      75 -> 79         0.68427

 Excited State   7:      Singlet-A      5.2452 eV  236.38 nm  f=0.0002  <S**2>=0.000
      76 -> 79        -0.30601
      77 -> 78        -0.11500
      77 -> 80         0.61395

 Excited State   8:      Singlet-A      5.2544 eV  235.96 nm  f=0.0040  <S**2>=0.000
      76 -> 78        -0.11177
      76 -> 80         0.62063
      77 -> 79        -0.28942

 Excited State   9:      Singlet-A      5.3547 eV  231.54 nm  f=0.0493  <S**2>=0.000
      74 -> 79         0.14341
      74 -> 83         0.22287
      75 -> 78        -0.19083
      75 -> 80         0.59183
      76 -> 82        -0.10802
      77 -> 81         0.15110

 Excited State  10:      Singlet-A      5.3667 eV  231.02 nm  f=0.0108  <S**2>=0.000
      77 -> 82        -0.12314
      77 -> 83         0.68306

 The electronic state is 1-A.
 Alpha  occ. eigenvalues --  -19.18614 -19.18611 -14.33840 -14.33838 -10.25536
 Alpha  occ. eigenvalues --  -10.25528 -10.23951 -10.23947 -10.23189 -10.23187
 Alpha  occ. eigenvalues --  -10.19598 -10.19392 -10.19392 -10.19390 -10.19388
 Alpha  occ. eigenvalues --  -10.18913 -10.18912 -10.18908 -10.18908 -10.18466
 Alpha  occ. eigenvalues --  -10.18413 -10.18406  -1.07339  -1.07188  -0.91702
 Alpha  occ. eigenvalues --   -0.91698  -0.85822  -0.84055  -0.83338  -0.75868
 Alpha  occ. eigenvalues --   -0.75369  -0.75034  -0.75033  -0.71539  -0.71319
 Alpha  occ. eigenvalues --   -0.63838  -0.62160  -0.62155  -0.61472  -0.60653
 Alpha  occ. eigenvalues --   -0.57326  -0.55321  -0.51925  -0.51553  -0.51190
 Alpha  occ. eigenvalues --   -0.51160  -0.49771  -0.49564  -0.48075  -0.44884
 Alpha  occ. eigenvalues --   -0.44826  -0.44516  -0.44389  -0.43510  -0.42337
 Alpha  occ. eigenvalues --   -0.42264  -0.41908  -0.41176  -0.40180  -0.39505
 Alpha  occ. eigenvalues --   -0.38344  -0.38063  -0.37549  -0.37523  -0.36041
 Alpha  occ. eigenvalues --   -0.35134  -0.34899  -0.33949  -0.30810  -0.30467
 Alpha  occ. eigenvalues --   -0.30310  -0.25728  -0.25650  -0.23488  -0.22043
 Alpha  occ. eigenvalues --   -0.20470  -0.20412
 Alpha virt. eigenvalues --   -0.01377  -0.00653   0.00618   0.01119   0.01317
 Alpha virt. eigenvalues --    0.01522   0.08732   0.09019   0.10062   0.10533
 Alpha virt. eigenvalues --    0.10726   0.12975   0.12995   0.14819   0.15536

 Mulliken charges:
               1
     1  N   -0.625109
     2  C    0.269856
     3  C   -0.147820
     4  C   -0.130359
     5  C    0.305830
     6  O   -0.592005
     7  C    0.316387
     8  C   -0.197551
     9  C    0.316127
    10  O   -0.590227
    11  C    0.311626
    12  C   -0.134023
    13  C   -0.148398
    14  C    0.270022
    15  N   -0.611166
    16  C   -0.147930
    17  C   -0.134448
    18  C   -0.142871
    19  C   -0.152973
    20  C   -0.143282
    21  C   -0.131131
    22  C   -0.147839
    23  H    0.298438
    24  H    0.298492
    25  H    0.101007
    26  H    0.102634
    27  H    0.088920
    28  H    0.102416
    29  H    0.101581
    30  H    0.303769
    31  H    0.303717
    32  H    0.101678
    33  H    0.102305
    34  H    0.094949
    35  H    0.089537
    36  H    0.094347
    37  H    0.102447
    38  H    0.101046
 Sum of Mulliken charges =  -0.00000

 Dipole moment (field-independent basis, Debye):
    X=             -1.8504    Y=              3.0256    Z=              3.2690  Tot=              4.8233
 Quadrupole moment (field-independent basis, Debye-Ang):
   XX=             -6.3555   YY=           -122.4336   ZZ=           -123.7338
   XY=             10.6622   XZ=             12.0513   YZ=             -6.4392

 Summary of Natural Population Analysis:

                                       Natural Population
                Natural  -----------------------------------------------
    Atom  No    Charge         Core      Valence    Rydberg      Total
 -----------------------------------------------------------------------
      N    1   -0.76974      1.99949     5.75931    0.01094     7.76974
      C    2    0.17353      1.99899     3.81009    0.01739     5.82647
      C    3   -0.29951      1.99905     4.28512    0.01534     6.29951
      C    4   -0.30077      1.99900     4.28559    0.01618     6.30077
      C    5    0.30647      1.99870     3.67191    0.02292     5.69353
      O    6   -0.52392      1.99970     6.51280    0.01142     8.52392
      C    7    0.31758      1.99875     3.66156    0.02211     5.68242
      C    8   -0.37934      1.99895     4.36440    0.01599     6.37934
      C    9    0.31664      1.99875     3.66246    0.02215     5.68336
      O   10   -0.52192      1.99970     6.51081    0.01142     8.52192
      C   11    0.32198      1.99870     3.65629    0.02303     5.67802
      C   12   -0.30974      1.99900     4.29392    0.01683     6.30974
      C   13   -0.30192      1.99906     4.28688    0.01598     6.30192
      C   14    0.17652      1.99898     3.80705    0.01745     5.82348
      N   15   -0.74576      1.99948     5.73564    0.01064     7.74576
      C   16   -0.30125      1.99906     4.28621    0.01598     6.30125
      C   17   -0.31025      1.99900     4.29440    0.01684     6.31025
      C   18   -0.35060      1.99901     4.33927    0.01232     6.35060
      C   19   -0.25881      1.99914     4.24362    0.01606     6.25881
      C   20   -0.35106      1.99901     4.33980    0.01224     6.35106
      C   21   -0.30076      1.99900     4.28556    0.01620     6.30076
      C   22   -0.29883      1.99905     4.28447    0.01530     6.29883
      H   23    0.42525      0.00000     0.57223    0.00252     0.57475
      H   24    0.42539      0.00000     0.57208    0.00253     0.57461
      H   25    0.24663      0.00000     0.75178    0.00159     0.75337
      H   26    0.25509      0.00000     0.74333    0.00158     0.74491
      H   27    0.25308      0.00000     0.74478    0.00214     0.74692
      H   28    0.25513      0.00000     0.74327    0.00160     0.74487
      H   29    0.24662      0.00000     0.75176    0.00162     0.75338
      H   30    0.42806      0.00000     0.56938    0.00257     0.57194
      H   31    0.42794      0.00000     0.56950    0.00256     0.57206
      H   32    0.24671      0.00000     0.75167    0.00162     0.75329
      H   33    0.25508      0.00000     0.74332    0.00160     0.74492
      H   34    0.25138      0.00000     0.74718    0.00144     0.74862
      H   35    0.24237      0.00000     0.75627    0.00137     0.75763
      H   36    0.25122      0.00000     0.74734    0.00144     0.74878
      H   37    0.25500      0.00000     0.74341    0.00159     0.74500
      H   38    0.24651      0.00000     0.75190    0.00160     0.75349
 =======================================================================
   * Total *    0.00000     43.97956   109.63634    0.38410   154.00000

 Normal termination of Gaussian 16 at Fri Jul 19 13:14:39 2024.
