 Gaussian 16, Revision A.03,

 -------------------------------------------------------
 # opt=CalcFc B3LYP/6-31G** SCRF=(Solvent=water) scf=xqc
 -------------------------------------------------------

 ----------------------------------
 UDGSVBYJWHOHNN-UHFFFAOYSA-N_conf_1
 ----------------------------------
 Symbolic Z-matrix:
 Charge =  0 Multiplicity = 1

 SCF Done:  E(RB3LYP) =  -347.777022542     A.U. after   11 cycles
 SCF Done:  E(RB3LYP) =  -347.780768681     A.U. after    9 cycles
 SCF Done:  E(RB3LYP) =  -347.781488967     A.U. after   10 cycles
 SCF Done:  E(RB3LYP) =  -347.782088248     A.U. after   10 cycles
 SCF Done:  E(RB3LYP) =  -347.782500543     A.U. after   10 cycles
 SCF Done:  E(RB3LYP) =  -347.783138903     A.U. after   10 cycles
 SCF Done:  E(RB3LYP) =  -347.782026250     A.U. after    9 cycles
 SCF Done:  E(RB3LYP) =  -347.783890429     A.U. after    9 cycles
 SCF Done:  E(RB3LYP) =  -347.784529570     A.U. after    9 cycles
 SCF Done:  E(RB3LYP) =  -347.784629787     A.U. after    9 cycles
 SCF Done:  E(RB3LYP) =  -347.784865868     A.U. after    9 cycles
 SCF Done:  E(RB3LYP) =  -347.784890337     A.U. after    8 cycles
 SCF Done:  E(RB3LYP) =  -347.784898895     A.U. after    8 cycles
 SCF Done:  E(RB3LYP) =  -347.784901448     A.U. after    7 cycles
 SCF Done:  E(RB3LYP) =  -347.784902150     A.U. after    6 cycles
 Optimization completed.
    -- Stationary point found.
 Normal termination of Gaussian 16 at Thu Jul 11 18:59:16 2024.

 ----------------------------------------------------------------------
 # freq B3LYP/6-31G** SCRF=(Solvent=water) volume NMR pop=NPA density=c
 urrent Geom=AllCheck Guess=Read
 ----------------------------------------------------------------------

 Structure from the checkpoint file:  "UDGSVBYJWHOHNN-UHFFFAOYSA-N_conf_1_1.chk"
 ----------------------------------
 UDGSVBYJWHOHNN-UHFFFAOYSA-N_conf_1
 ----------------------------------
 Charge =  0 Multiplicity = 1

 SCF Done:  E(RB3LYP) =  -347.784902150     A.U. after    1 cycles

      1  N    Isotropic =   231.2236   Anisotropy =    32.6645

      2  C    Isotropic =   143.3112   Anisotropy =    21.2585

      3  C    Isotropic =   137.6054   Anisotropy =    40.7908

      4  N    Isotropic =   197.8549   Anisotropy =    16.0020

      5  C    Isotropic =   139.6155   Anisotropy =    54.2640

      6  C    Isotropic =   176.7427   Anisotropy =    23.3061

      7  C    Isotropic =   143.5366   Anisotropy =    48.7796

      8  C    Isotropic =   176.2249   Anisotropy =    24.0309

      9  H    Isotropic =    31.6551   Anisotropy =    11.8257

     10  H    Isotropic =    30.9760   Anisotropy =    15.5264

     11  H    Isotropic =    29.0056   Anisotropy =     5.3886

     12  H    Isotropic =    28.5636   Anisotropy =     8.5850

     13  H    Isotropic =    29.5678   Anisotropy =     6.6604

     14  H    Isotropic =    29.3801   Anisotropy =     5.4025

     15  H    Isotropic =    29.5640   Anisotropy =     6.8028

     16  H    Isotropic =    27.9905   Anisotropy =     7.4150

     17  H    Isotropic =    30.7286   Anisotropy =     7.9415

     18  H    Isotropic =    30.9336   Anisotropy =    10.6119

     19  H    Isotropic =    30.5388   Anisotropy =     7.1241

     20  H    Isotropic =    29.2125   Anisotropy =     5.8509

     21  H    Isotropic =    29.7200   Anisotropy =     7.3311

     22  H    Isotropic =    30.8678   Anisotropy =     8.2380

     23  H    Isotropic =    30.6303   Anisotropy =     6.7755

     24  H    Isotropic =    30.8825   Anisotropy =    10.7013

  Exact polarizability: 108.686   1.139 105.620  -0.450   1.093  96.017
 Approx polarizability: 110.328   1.251 108.691  -0.646   1.063 104.963

                      1                      2                      3
                      A                      A                      A
 Frequencies --     50.3199                87.3525                95.9221
 Red. masses --      2.8965                 2.1522                 1.9905
 Frc consts  --      0.0043                 0.0097                 0.0108
 IR Inten    --      0.9366                 0.7228                 0.4761

                      4                      5                      6
                      A                      A                      A
 Frequencies --    141.9637               193.6063               221.1453
 Red. masses --      2.3130                 1.3308                 1.2235
 Frc consts  --      0.0275                 0.0294                 0.0353
 IR Inten    --      5.9422                 7.5848                 0.4745

                      7                      8                      9
                      A                      A                      A
 Frequencies --    247.4518               265.3932               311.9046
 Red. masses --      1.4596                 1.6369                 1.9368
 Frc consts  --      0.0527                 0.0679                 0.1110
 IR Inten    --     29.1555                37.6890                 0.8892

                     10                     11                     12
                      A                      A                      A
 Frequencies --    329.1503               357.0997               444.1057
 Red. masses --      1.8424                 2.2753                 2.9217
 Frc consts  --      0.1176                 0.1709                 0.3395
 IR Inten    --      9.1920                 2.8940                 8.0797

                     13                     14                     15
                      A                      A                      A
 Frequencies --    472.6579               518.6713               747.4886
 Red. masses --      2.4715                 2.0204                 2.2831
 Frc consts  --      0.3253                 0.3202                 0.7516
 IR Inten    --      3.9950                12.9616                26.6522

                     16                     17                     18
                      A                      A                      A
 Frequencies --    805.8293               813.4805               848.7473
 Red. masses --      1.1728                 1.1538                 1.6272
 Frc consts  --      0.4487                 0.4498                 0.6906
 IR Inten    --      5.1282                10.1571                85.2028

                     19                     20                     21
                      A                      A                      A
 Frequencies --    885.7886               927.6861               975.2297
 Red. masses --      1.8911                 2.0922                 1.6196
 Frc consts  --      0.8742                 1.0609                 0.9076
 IR Inten    --      7.7941                49.2655                51.1243

                     22                     23                     24
                      A                      A                      A
 Frequencies --   1004.8675              1045.0363              1070.9041
 Red. masses --      1.7545                 1.9331                 2.9063
 Frc consts  --      1.0438                 1.2439                 1.9638
 IR Inten    --      8.3730                63.7226                36.7147

                     25                     26                     27
                      A                      A                      A
 Frequencies --   1084.9583              1100.6235              1108.8270
 Red. masses --      2.1408                 1.8130                 1.8628
 Frc consts  --      1.4847                 1.2940                 1.3494
 IR Inten    --     24.0565                 6.9043                31.8732

                     28                     29                     30
                      A                      A                      A
 Frequencies --   1128.4627              1190.0660              1231.1386
 Red. masses --      1.9129                 1.6228                 1.9839
 Frc consts  --      1.4352                 1.3541                 1.7717
 IR Inten    --     14.3424                13.7986                14.4915

                     31                     32                     33
                      A                      A                      A
 Frequencies --   1241.3745              1323.1643              1334.5636
 Red. masses --      2.1263                 1.1214                 1.1784
 Frc consts  --      1.9306                 1.1567                 1.2365
 IR Inten    --     25.5258                 3.6032                33.4862

                     34                     35                     36
                      A                      A                      A
 Frequencies --   1338.0918              1345.0024              1401.0517
 Red. masses --      1.2285                 1.1822                 1.2679
 Frc consts  --      1.2959                 1.2600                 1.4664
 IR Inten    --     12.3323                37.5694                11.9730

                     37                     38                     39
                      A                      A                      A
 Frequencies --   1409.3238              1418.3454              1427.0352
 Red. masses --      1.2361                 1.2648                 1.3547
 Frc consts  --      1.4466                 1.4992                 1.6254
 IR Inten    --      3.5970                18.9303                13.5934

                     40                     41                     42
                      A                      A                      A
 Frequencies --   1434.9534              1436.3664              1487.4791
 Red. masses --      1.3985                 1.4247                 1.0679
 Frc consts  --      1.6966                 1.7318                 1.3921
 IR Inten    --      7.4471                17.1364                 3.7293

                     43                     44                     45
                      A                      A                      A
 Frequencies --   1492.4309              1497.7309              1500.9487
 Red. masses --      1.0580                 1.0546                 1.0496
 Frc consts  --      1.3884                 1.3939                 1.3932
 IR Inten    --      0.9312                 0.9095                 1.7851

                     46                     47                     48
                      A                      A                      A
 Frequencies --   1504.7791              1507.6635              1516.7425
 Red. masses --      1.0638                 1.0852                 1.0787
 Frc consts  --      1.4192                 1.4533                 1.4621
 IR Inten    --     12.1276                 0.8320                 1.4434

                     49                     50                     51
                      A                      A                      A
 Frequencies --   1522.9803              1654.0934              2916.9589
 Red. masses --      1.0873                 1.0868                 1.0733
 Frc consts  --      1.4859                 1.7520                 5.3808
 IR Inten    --      8.6833                40.2248                69.4938

                     52                     53                     54
                      A                      A                      A
 Frequencies --   2922.4833              2930.4985              2956.3929
 Red. masses --      1.0734                 1.0733                 1.0730
 Frc consts  --      5.4018                 5.4307                 5.5255
 IR Inten    --     64.0672               284.7560               149.3156

                     55                     56                     57
                      A                      A                      A
 Frequencies --   3041.9105              3043.2365              3072.4518
 Red. masses --      1.0358                 1.0357                 1.0895
 Frc consts  --      5.6468                 5.6513                 6.0594
 IR Inten    --     34.6133                30.5507                57.3886

                     58                     59                     60
                      A                      A                      A
 Frequencies --   3086.9333              3089.4400              3104.2786
 Red. masses --      1.0888                 1.0866                 1.0980
 Frc consts  --      6.1130                 6.1107                 6.2341
 IR Inten    --     32.3172                37.2335                26.1554

                     61                     62                     63
                      A                      A                      A
 Frequencies --   3113.0610              3114.5184              3119.1151
 Red. masses --      1.1006                 1.1009                 1.1028
 Frc consts  --      6.2842                 6.2916                 6.3211
 IR Inten    --     65.1151                67.5535                72.5600

                     64                     65                     66
                      A                      A                      A
 Frequencies --   3126.1855              3476.2201              3554.8131
 Red. masses --      1.0940                 1.0508                 1.0916
 Frc consts  --      6.2994                 7.4812                 8.1275
 IR Inten    --     34.0590                 0.9808                 0.0779

 - Thermochemistry -
 -------------------
 Temperature   298.150 Kelvin.  Pressure   1.00000 Atm.
 Atom     1 has atomic number  7 and mass  14.00307

 Molecular mass:   116.13135 amu.
 Principal axes and moments of inertia in atomic units:
                           1         2         3
     Eigenvalues --   818.470411281.693381877.79964
           X            0.99999  -0.00185   0.00500
           Y            0.00184   1.00000   0.00085
           Z           -0.00500  -0.00084   0.99999
 This molecule is an asymmetric top.
 Rotational symmetry number  1.
 Warning -- assumption of classical behavior for rotation
           may cause significant error
 Rotational temperatures (Kelvin)      0.10582     0.06758     0.04613
 Rotational constants (GHZ):           2.20502     1.40809     0.96109
 Zero-point vibrational energy     587178.0 (Joules/Mol)
                                  140.33891 (Kcal/Mol)
 Warning -- explicit consideration of  14 degrees of freedom as
           vibrations may cause significant error
 Vibrational temperatures:     72.40   125.68   138.01   204.25   278.56
          (Kelvin)            318.18   356.03   381.84   448.76   473.57
                              513.79   638.97   680.05   746.25  1075.47
                             1159.41  1170.42  1221.16  1274.45  1334.73
                             1403.14  1445.78  1503.57  1540.79  1561.01
                             1583.55  1595.35  1623.61  1712.24  1771.33
                             1786.06  1903.74  1920.14  1925.22  1935.16
                             2015.80  2027.70  2040.68  2053.19  2064.58
                             2066.61  2140.15  2147.28  2154.90  2159.53
                             2165.04  2169.19  2182.25  2191.23  2379.87
                             4196.85  4204.80  4216.33  4253.59  4376.63
                             4378.54  4420.57  4441.41  4445.02  4466.36
                             4479.00  4481.10  4487.71  4497.88  5001.51
                             5114.58

 Zero-point correction=                           0.223644 (Hartree/Particle)
 Thermal correction to Energy=                    0.234211
 Thermal correction to Enthalpy=                  0.235155
 Thermal correction to Gibbs Free Energy=         0.187840
 Sum of electronic and zero-point Energies=           -347.561258
 Sum of electronic and thermal Energies=              -347.550691
 Sum of electronic and thermal Enthalpies=            -347.549747
 Sum of electronic and thermal Free Energies=         -347.597062

                     E (Thermal)             CV                S
                      KCal/Mol        Cal/Mol-Kelvin    Cal/Mol-Kelvin
 Total                  146.970             38.058             99.584
 Electronic               0.000              0.000              0.000
 Translational            0.889              2.981             40.164
 Rotational               0.889              2.981             29.067
 Vibrational            145.192             32.097             30.353
 Vibration     1          0.595              1.977              4.805
 Vibration     2          0.601              1.958              3.719
 Vibration     3          0.603              1.952              3.536
 Vibration     4          0.615              1.911              2.777
 Vibration     5          0.635              1.849              2.193
 Vibration     6          0.648              1.809              1.950
 Vibration     7          0.661              1.767              1.749
 Vibration     8          0.671              1.736              1.626
 Vibration     9          0.700              1.651              1.352
 Vibration    10          0.712              1.617              1.264
 Vibration    11          0.732              1.561              1.135
 Vibration    12          0.804              1.374              0.814
 Vibration    13          0.830              1.311              0.730
 Vibration    14          0.874              1.209              0.613

                           ! Non-Optimized Parameters !
 Normal termination of Gaussian 16 at Thu Jul 11 19:13:49 2024.
 Gaussian 16:  EM64L-G16RevA.03 25-Dec-2016

 ----------------------------------------------------------------------
 # TD(NStates=10, Root=1) B3LYP/6-31G** SCRF=(Solvent=water) volume pop
 =NPA density=current Geom=AllCheck Guess=Read
 ----------------------------------------------------------------------

 Structure from the checkpoint file:  "UDGSVBYJWHOHNN-UHFFFAOYSA-N_conf_1_2.chk"
 ----------------------------------
 UDGSVBYJWHOHNN-UHFFFAOYSA-N_conf_1
 ----------------------------------
 Charge =  0 Multiplicity = 1

                         Standard orientation:
 ---------------------------------------------------------------------
 Center     Atomic      Atomic             Coordinates (Angstroms)
 Number     Number       Type             X           Y           Z
 ---------------------------------------------------------------------
      1          7           0        2.756598    0.116364   -0.222430
      2          6           0        1.879962   -1.063029   -0.305940
      3          6           0        0.611803   -0.941319    0.547374
      4          7           0       -0.390767    0.007757    0.042986
      5          6           0       -0.116547    1.389067    0.476831
      6          6           0       -0.748044    2.440028   -0.437967
      7          6           0       -1.755928   -0.413274    0.397099
      8          6           0       -2.294827   -1.527553   -0.501568
      9          1           0        3.148183    0.167500    0.717204
     10          1           0        3.555726   -0.021933   -0.838348
     11          1           0        1.575897   -1.186442   -1.351512
     12          1           0        2.388852   -1.995824   -0.006799
     13          1           0        0.890926   -0.717387    1.595627
     14          1           0        0.156540   -1.936099    0.566022
     15          1           0       -0.447518    1.551002    1.521354
     16          1           0        0.966680    1.520555    0.456988
     17          1           0       -0.378558    2.324318   -1.461920
     18          1           0       -0.490441    3.446487   -0.090812
     19          1           0       -1.840493    2.374028   -0.465871
     20          1           0       -2.412819    0.455563    0.296626
     21          1           0       -1.817638   -0.721134    1.458481
     22          1           0       -2.298836   -1.206338   -1.547873
     23          1           0       -1.695929   -2.441450   -0.433378
     24          1           0       -3.319901   -1.785215   -0.214649
 ---------------------------------------------------------------------

 SCF Done:  E(RB3LYP) =  -347.784902150     A.U. after    1 cycles

 Excitation energies and oscillator strengths:

 Excited State   1:      Singlet-A      7.0213 eV  176.58 nm  f=0.0111  <S**2>=0.000
      32 -> 34        -0.12211
      33 -> 34         0.68637
 This state for optimization and/or second-order correction.
 Total Energy, E(TD-HF/TD-DFT) =  -347.526875861
 Copying the excited state density for this state as the 1-particle RhoCI density.

 Excited State   2:      Singlet-A      7.3765 eV  168.08 nm  f=0.0212  <S**2>=0.000
      32 -> 34         0.35956
      33 -> 35         0.59920

 Excited State   3:      Singlet-A      7.4921 eV  165.49 nm  f=0.0775  <S**2>=0.000
      32 -> 34         0.53453
      32 -> 35        -0.16014
      33 -> 34         0.12942
      33 -> 35        -0.34177
      33 -> 36         0.21543

 Excited State   4:      Singlet-A      7.6667 eV  161.72 nm  f=0.0758  <S**2>=0.000
      32 -> 34        -0.15972
      33 -> 35         0.11382
      33 -> 36         0.66890

 Excited State   5:      Singlet-A      7.9366 eV  156.22 nm  f=0.1869  <S**2>=0.000
      33 -> 37         0.70142

 Excited State   6:      Singlet-A      8.4097 eV  147.43 nm  f=0.0892  <S**2>=0.000
      33 -> 38         0.66805
      33 -> 39        -0.16720

 Excited State   7:      Singlet-A      8.4522 eV  146.69 nm  f=0.0105  <S**2>=0.000
      32 -> 34         0.19928
      32 -> 35         0.60378
      32 -> 36         0.21332
      33 -> 39        -0.16456

 Excited State   8:      Singlet-A      8.5449 eV  145.10 nm  f=0.0754  <S**2>=0.000
      32 -> 35         0.22657
      32 -> 36        -0.11154
      33 -> 38         0.14093
      33 -> 39         0.61636
      33 -> 40        -0.10527
      33 -> 44        -0.10177

 Excited State   9:      Singlet-A      8.6425 eV  143.46 nm  f=0.0313  <S**2>=0.000
      32 -> 35        -0.19005
      32 -> 36         0.60578
      32 -> 37         0.13662
      32 -> 39         0.12723
      33 -> 39         0.18584

 Excited State  10:      Singlet-A      8.7371 eV  141.91 nm  f=0.0246  <S**2>=0.000
      32 -> 36        -0.18434
      32 -> 37         0.40431
      32 -> 38         0.12842
      32 -> 40        -0.14830
      33 -> 40         0.48934

 The electronic state is 1-A.
 Alpha  occ. eigenvalues --  -14.31455 -14.31074 -10.20159 -10.20015 -10.19973
 Alpha  occ. eigenvalues --  -10.19336 -10.17021 -10.16831  -0.91015  -0.87011
 Alpha  occ. eigenvalues --   -0.75101  -0.73961  -0.68868  -0.61479  -0.60202
 Alpha  occ. eigenvalues --   -0.55742  -0.48720  -0.47377  -0.45533  -0.44478
 Alpha  occ. eigenvalues --   -0.43396  -0.41876  -0.40871  -0.37610  -0.37346
 Alpha  occ. eigenvalues --   -0.36580  -0.34816  -0.34405  -0.34025  -0.32554
 Alpha  occ. eigenvalues --   -0.32243  -0.23543  -0.20549
 Alpha virt. eigenvalues --    0.08549   0.10262   0.11213   0.12566   0.14466
 Alpha virt. eigenvalues --    0.14564   0.15284   0.16003   0.16745   0.17287
 Alpha virt. eigenvalues --    0.17964   0.18530   0.18637   0.20156   0.20860

 Mulliken charges:
               1
     1  N   -0.433176
     2  C   -0.006870
     3  C   -0.002695
     4  N   -0.234518
     5  C   -0.064574
     6  C   -0.340540
     7  C   -0.060705
     8  C   -0.306534
     9  H    0.036877
    10  H    0.015898
    11  H    0.060229
    12  H    0.008442
    13  H    0.110122
    14  H   -0.010852
    15  H    0.167098
    16  H    0.121956
    17  H    0.125445
    18  H    0.126527
    19  H    0.119760
    20  H    0.113197
    21  H    0.159626
    22  H    0.112483
    23  H    0.075732
    24  H    0.107070
 Sum of Mulliken charges =  -0.00000

 Dipole moment (field-independent basis, Debye):
    X=             -5.7636    Y=              1.3258    Z=              1.8220  Tot=              6.1884
 Quadrupole moment (field-independent basis, Debye-Ang):
   XX=            -64.8570   YY=            -55.1665   ZZ=            -52.9584
   XY=             -1.4342   XZ=              0.2161   YZ=              1.0025

 Summary of Natural Population Analysis:

                                       Natural Population
                Natural  -----------------------------------------------
    Atom  No    Charge         Core      Valence    Rydberg      Total
 -----------------------------------------------------------------------
      N    1   -0.88803      1.99961     5.86768    0.02074     7.88803
      C    2   -0.28913      1.99937     4.27256    0.01721     6.28913
      C    3   -0.31556      1.99924     4.29847    0.01786     6.31556
      N    4   -0.10203      1.99930     5.09169    0.01103     7.10203
      C    5   -0.31748      1.99928     4.30250    0.01570     6.31748
      C    6   -0.70972      1.99945     4.70103    0.00924     6.70972
      C    7   -0.31006      1.99931     4.29535    0.01540     6.31006
      C    8   -0.70791      1.99944     4.69826    0.01021     6.70791
      H    9    0.24037      0.00000     0.69947    0.06016     0.75963
      H   10    0.21587      0.00000     0.72510    0.05903     0.78413
      H   11    0.20181      0.00000     0.77939    0.01880     0.79819
      H   12    0.15724      0.00000     0.80839    0.03438     0.84276
      H   13    0.24714      0.00000     0.73146    0.02140     0.75286
      H   14    0.13626      0.00000     0.82153    0.04221     0.86374
      H   15    0.27900      0.00000     0.71613    0.00488     0.72100
      H   16    0.25148      0.00000     0.73440    0.01412     0.74852
      H   17    0.24121      0.00000     0.75514    0.00365     0.75879
      H   18    0.25186      0.00000     0.74581    0.00233     0.74814
      H   19    0.23371      0.00000     0.76255    0.00374     0.76629
      H   20    0.23612      0.00000     0.75221    0.01167     0.76388
      H   21    0.27196      0.00000     0.72077    0.00727     0.72804
      H   22    0.23423      0.00000     0.76048    0.00529     0.76577
      H   23    0.20450      0.00000     0.77645    0.01905     0.79550
      H   24    0.23714      0.00000     0.75692    0.00593     0.76286
 =======================================================================
   * Total *   -0.00000     15.99500    49.57373    0.43127    66.00000

 1\1\GINC-CN36\SP\RB3LYP TD-FC\6-31G(d,p)\C6H16N2\QDUEZ\11-Jul-2024\0\\
 # TD(NStates=10, Root=1) B3LYP/6-31G** SCRF=(Solvent=water) volume pop
 =NPA density=current Geom=AllCheck Guess=Read\\UDGSVBYJWHOHNN-UHFFFAOY
 SA-N_conf_1\\0,1\N,0,2.6360710723,0.811025148,-0.738387112\C,0,1.90110
 27414,-0.397989115,-1.1440220771\C,0,0.916008331,-0.897798663,-0.08055
 30168\N,0,-0.2821986526,-0.0659243065,0.0999519138\C,0,-0.0458078461,1
 .0561241825,1.0254592848\C,0,-1.0151962646,2.2204908923,0.8140421825\C
 ,0,-1.4416628548,-0.8746676136,0.5097130199\C,0,-2.0886859394,-1.63159

 Normal termination of Gaussian 16 at Thu Jul 11 19:29:17 2024.
