 Gaussian 16, Revision A.03,

 -------------------------------------------------------
 # opt=CalcFc B3LYP/6-31G** SCRF=(Solvent=water) scf=xqc
 -------------------------------------------------------

 ----------------------------------
 UDGSVBYJWHOHNN-UHFFFAOYSA-N_conf_2
 ----------------------------------
 Symbolic Z-matrix:
 Charge =  0 Multiplicity = 1

 SCF Done:  E(RB3LYP) =  -347.782871141     A.U. after   11 cycles
 SCF Done:  E(RB3LYP) =  -347.785885608     A.U. after    9 cycles
 SCF Done:  E(RB3LYP) =  -347.786474838     A.U. after   10 cycles
 SCF Done:  E(RB3LYP) =  -347.786550440     A.U. after    9 cycles
 SCF Done:  E(RB3LYP) =  -347.786579858     A.U. after    8 cycles
 SCF Done:  E(RB3LYP) =  -347.786581437     A.U. after    7 cycles
 SCF Done:  E(RB3LYP) =  -347.786581700     A.U. after    7 cycles
 SCF Done:  E(RB3LYP) =  -347.786581757     A.U. after    6 cycles
 Optimization completed.
    -- Stationary point found.
 Normal termination of Gaussian 16 at Thu Jul 11 18:59:14 2024.

 ----------------------------------------------------------------------
 # freq B3LYP/6-31G** SCRF=(Solvent=water) volume NMR pop=NPA density=c
 urrent Geom=AllCheck Guess=Read
 ----------------------------------------------------------------------

 Structure from the checkpoint file:  "UDGSVBYJWHOHNN-UHFFFAOYSA-N_conf_2_1.chk"
 ----------------------------------
 UDGSVBYJWHOHNN-UHFFFAOYSA-N_conf_2
 ----------------------------------
 Charge =  0 Multiplicity = 1

 SCF Done:  E(RB3LYP) =  -347.786581757     A.U. after    1 cycles

      1  N    Isotropic =   240.7990   Anisotropy =    35.9050

      2  C    Isotropic =   145.1306   Anisotropy =    20.0669

      3  C    Isotropic =   134.8412   Anisotropy =    36.9188

      4  N    Isotropic =   216.1569   Anisotropy =    44.4801

      5  C    Isotropic =   141.3876   Anisotropy =    50.4590

      6  C    Isotropic =   174.3738   Anisotropy =    22.6915

      7  C    Isotropic =   135.6626   Anisotropy =    58.4413

      8  C    Isotropic =   182.8462   Anisotropy =    13.7331

      9  H    Isotropic =    31.9613   Anisotropy =    13.9952

     10  H    Isotropic =    30.1812   Anisotropy =    10.7969

     11  H    Isotropic =    29.4372   Anisotropy =     6.8369

     12  H    Isotropic =    29.3879   Anisotropy =     8.0489

     13  H    Isotropic =    29.2746   Anisotropy =     5.1012

     14  H    Isotropic =    29.2151   Anisotropy =     6.5599

     15  H    Isotropic =    29.3120   Anisotropy =     7.2773

     16  H    Isotropic =    28.8453   Anisotropy =     6.3796

     17  H    Isotropic =    30.7696   Anisotropy =    10.7185

     18  H    Isotropic =    30.7735   Anisotropy =     7.4934

     19  H    Isotropic =    30.6899   Anisotropy =     6.1780

     20  H    Isotropic =    28.9612   Anisotropy =     7.1585

     21  H    Isotropic =    28.8083   Anisotropy =     7.5251

     22  H    Isotropic =    31.3351   Anisotropy =    10.6749

     23  H    Isotropic =    30.6647   Anisotropy =     6.9231

     24  H    Isotropic =    30.5571   Anisotropy =     7.4881

  Exact polarizability: 103.558   0.635 106.688  -3.484   1.641  96.314
 Approx polarizability: 106.070   2.059 111.164  -3.210   1.768 106.329

                      1                      2                      3
                      A                      A                      A
 Frequencies --     49.7389               104.0194               119.6413
 Red. masses --      3.3770                 2.3048                 2.2198
 Frc consts  --      0.0049                 0.0147                 0.0187
 IR Inten    --      0.7123                 0.1830                 0.3802

                      4                      5                      6
                      A                      A                      A
 Frequencies --    121.1132               179.1649               231.4632
 Red. masses --      2.1727                 2.2673                 1.1309
 Frc consts  --      0.0188                 0.0429                 0.0357
 IR Inten    --      1.0928                 1.6659                 0.2765

                      7                      8                      9
                      A                      A                      A
 Frequencies --    259.9895               277.0465               320.9360
 Red. masses --      1.5201                 1.5396                 1.7555
 Frc consts  --      0.0605                 0.0696                 0.1065
 IR Inten    --      6.3804                 5.9190                11.1310

                     10                     11                     12
                      A                      A                      A
 Frequencies --    360.5917               402.4963               415.8590
 Red. masses --      1.3117                 2.4132                 2.1174
 Frc consts  --      0.1005                 0.2303                 0.2157
 IR Inten    --     55.4910                17.1847                 1.1812

                     13                     14                     15
                      A                      A                      A
 Frequencies --    482.3822               569.0458               730.5232
 Red. masses --      1.7827                 2.7352                 2.3056
 Frc consts  --      0.2444                 0.5218                 0.7249
 IR Inten    --      5.8904                 1.4482                25.6895

                     16                     17                     18
                      A                      A                      A
 Frequencies --    793.7780               810.7402               862.3701
 Red. masses --      1.1367                 1.1427                 1.9224
 Frc consts  --      0.4220                 0.4425                 0.8423
 IR Inten    --      5.1925                 2.0045                 3.0987

                     19                     20                     21
                      A                      A                      A
 Frequencies --    881.4748               912.1728               955.2228
 Red. masses --      2.1640                 1.9352                 1.6459
 Frc consts  --      0.9907                 0.9487                 0.8848
 IR Inten    --     49.5947                 9.5612               188.6868

                     22                     23                     24
                      A                      A                      A
 Frequencies --    985.6566              1019.1612              1074.0371
 Red. masses --      1.6672                 2.4443                 2.1499
 Frc consts  --      0.9543                 1.4958                 1.4612
 IR Inten    --     11.9344               107.5558                 6.8215

                     25                     26                     27
                      A                      A                      A
 Frequencies --   1088.1946              1108.8502              1113.3865
 Red. masses --      2.3334                 1.7940                 1.9961
 Frc consts  --      1.6280                 1.2996                 1.4579
 IR Inten    --     26.9487                40.0270                55.6259

                     28                     29                     30
                      A                      A                      A
 Frequencies --   1128.4630              1172.4980              1236.2191
 Red. masses --      1.7641                 1.5193                 2.1795
 Frc consts  --      1.3235                 1.2306                 1.9625
 IR Inten    --      6.0576                18.2067                24.6337

                     31                     32                     33
                      A                      A                      A
 Frequencies --   1243.2939              1298.8801              1349.5584
 Red. masses --      1.8554                 1.1801                 1.2148
 Frc consts  --      1.6898                 1.1730                 1.3036
 IR Inten    --     22.9889                 5.7136                16.9899

                     34                     35                     36
                      A                      A                      A
 Frequencies --   1365.8676              1381.1307              1389.0872
 Red. masses --      1.3729                 1.2724                 1.2655
 Frc consts  --      1.5091                 1.4300                 1.4387
 IR Inten    --     22.4101                36.4737                18.9089

                     37                     38                     39
                      A                      A                      A
 Frequencies --   1396.8236              1400.4381              1411.9953
 Red. masses --      1.2636                 1.2111                 1.2632
 Frc consts  --      1.4526                 1.3995                 1.4839
 IR Inten    --     21.2255                 7.8534                11.5655

                     40                     41                     42
                      A                      A                      A
 Frequencies --   1413.5554              1431.0275              1482.7514
 Red. masses --      1.2457                 1.3602                 1.0730
 Frc consts  --      1.4666                 1.6412                 1.3900
 IR Inten    --      4.4264                21.6187                 2.0003

                     43                     44                     45
                      A                      A                      A
 Frequencies --   1489.8998              1494.4335              1497.9030
 Red. masses --      1.0628                 1.0761                 1.0478
 Frc consts  --      1.3901                 1.4159                 1.3851
 IR Inten    --      1.2170                 2.9830                 3.4445

                     46                     47                     48
                      A                      A                      A
 Frequencies --   1501.7088              1503.7991              1512.9344
 Red. masses --      1.0657                 1.0486                 1.0714
 Frc consts  --      1.4160                 1.3971                 1.4449
 IR Inten    --      6.3384                 4.6104                 4.2976

                     49                     50                     51
                      A                      A                      A
 Frequencies --   1525.6679              1660.2154              2936.0100
 Red. masses --      1.0963                 1.0853                 1.0722
 Frc consts  --      1.5034                 1.7625                 5.4453
 IR Inten    --      4.1543                29.7022               129.8293

                     52                     53                     54
                      A                      A                      A
 Frequencies --   2985.7430              3031.0454              3038.9552
 Red. masses --      1.0657                 1.0621                 1.0589
 Frc consts  --      5.5974                 5.7491                 5.7618
 IR Inten    --     90.7321                64.1878                49.7422

                     55                     56                     57
                      A                      A                      A
 Frequencies --   3042.6242              3044.0216              3051.4464
 Red. masses --      1.0363                 1.0380                 1.0961
 Frc consts  --      5.6521                 5.6671                 6.0135
 IR Inten    --     37.8075                39.6557                34.4630

                     58                     59                     60
                      A                      A                      A
 Frequencies --   3058.3809              3072.7710              3085.9036
 Red. masses --      1.0883                 1.1029                 1.1038
 Frc consts  --      5.9976                 6.1355                 6.1929
 IR Inten    --     47.9644                33.8054               110.0073

                     61                     62                     63
                      A                      A                      A
 Frequencies --   3110.0471              3114.4717              3118.8455
 Red. masses --      1.1019                 1.1018                 1.1030
 Frc consts  --      6.2796                 6.2966                 6.3214
 IR Inten    --     60.1233                49.1739                79.2294

                     64                     65                     66
                      A                      A                      A
 Frequencies --   3120.4961              3455.2860              3533.5951
 Red. masses --      1.1031                 1.0498                 1.0908
 Frc consts  --      6.3288                 7.3847                 8.0250
 IR Inten    --     55.8016                 5.0137                 1.6899

 - Thermochemistry -
 -------------------
 Temperature   298.150 Kelvin.  Pressure   1.00000 Atm.
 Atom     1 has atomic number  7 and mass  14.00307

 Molecular mass:   116.13135 amu.
 Principal axes and moments of inertia in atomic units:
                           1         2         3
     Eigenvalues --   860.628941198.718191748.49823
           X            0.99889  -0.04684  -0.00458
           Y            0.04683   0.99890  -0.00346
           Z            0.00474   0.00324   0.99998
 This molecule is an asymmetric top.
 Rotational symmetry number  1.
 Warning -- assumption of classical behavior for rotation
           may cause significant error
 Rotational temperatures (Kelvin)      0.10064     0.07226     0.04954
 Rotational constants (GHZ):           2.09700     1.50556     1.03217
 Zero-point vibrational energy     588065.4 (Joules/Mol)
                                  140.55099 (Kcal/Mol)
 Warning -- explicit consideration of  14 degrees of freedom as
           vibrations may cause significant error
 Vibrational temperatures:     71.56   149.66   172.14   174.25   257.78
          (Kelvin)            333.02   374.07   398.61   461.76   518.81
                              579.10   598.33   694.04   818.73  1051.06
                             1142.07  1166.47  1240.76  1268.25  1312.41
                             1374.35  1418.14  1466.35  1545.30  1565.67
                             1595.39  1601.91  1623.61  1686.96  1778.64
                             1788.82  1868.80  1941.71  1965.18  1987.14
                             1998.59  2009.72  2014.92  2031.55  2033.79
                             2058.93  2133.35  2143.63  2150.16  2155.15
                             2160.62  2163.63  2176.78  2195.10  2388.68
                             4224.26  4295.82  4361.00  4372.38  4377.66
                             4379.67  4390.35  4400.33  4421.03  4439.93
                             4474.66  4481.03  4487.32  4489.70  4971.39
                             5084.06

 Zero-point correction=                           0.223982 (Hartree/Particle)
 Thermal correction to Energy=                    0.234398
 Thermal correction to Enthalpy=                  0.235343
 Thermal correction to Gibbs Free Energy=         0.188496
 Sum of electronic and zero-point Energies=           -347.562599
 Sum of electronic and thermal Energies=              -347.552183
 Sum of electronic and thermal Enthalpies=            -347.551239
 Sum of electronic and thermal Free Energies=         -347.598086

                     E (Thermal)             CV                S
                      KCal/Mol        Cal/Mol-Kelvin    Cal/Mol-Kelvin
 Total                  147.087             37.898             98.597
 Electronic               0.000              0.000              0.000
 Translational            0.889              2.981             40.164
 Rotational               0.889              2.981             28.980
 Vibrational            145.310             31.936             29.453
 Vibration     1          0.595              1.978              4.828
 Vibration     2          0.605              1.946              3.378
 Vibration     3          0.609              1.933              3.106
 Vibration     4          0.609              1.932              3.083
 Vibration     5          0.629              1.868              2.337
 Vibration     6          0.653              1.793              1.868
 Vibration     7          0.668              1.746              1.662
 Vibration     8          0.678              1.716              1.552
 Vibration     9          0.706              1.633              1.305
 Vibration    10          0.735              1.553              1.120
 Vibration    11          0.768              1.465              0.954
 Vibration    12          0.779              1.436              0.906
 Vibration    13          0.839              1.289              0.704
 Vibration    14          0.925              1.098              0.506

 Optimization completed.
    -- Stationary point found.
 Normal termination of Gaussian 16 at Thu Jul 11 19:19:11 2024.
 Gaussian 16:  EM64L-G16RevA.03 25-Dec-2016

 ----------------------------------------------------------------------
 # TD(NStates=10, Root=1) B3LYP/6-31G** SCRF=(Solvent=water) volume pop
 =NPA density=current Geom=AllCheck Guess=Read
 ----------------------------------------------------------------------

 Structure from the checkpoint file:  "UDGSVBYJWHOHNN-UHFFFAOYSA-N_conf_2_2.chk"
 ----------------------------------
 UDGSVBYJWHOHNN-UHFFFAOYSA-N_conf_2
 ----------------------------------
 Charge =  0 Multiplicity = 1

                         Standard orientation:
 ---------------------------------------------------------------------
 Center     Atomic      Atomic             Coordinates (Angstroms)
 Number     Number       Type             X           Y           Z
 ---------------------------------------------------------------------
      1          7           0       -2.385975   -1.152282   -0.674983
      2          6           0       -2.032767   -0.356247    0.507745
      3          6           0       -0.537155   -0.371808    0.874006
      4          7           0        0.316527    0.067201   -0.242457
      5          6           0        0.870633    1.416067   -0.086775
      6          6           0       -0.183735    2.522257   -0.146052
      7          6           0        1.322424   -0.923159   -0.652267
      8          6           0        2.470957   -1.197210    0.332957
      9          1           0       -2.156721   -2.129322   -0.491673
     10          1           0       -1.746641   -0.867400   -1.418001
     11          1           0       -2.353890    0.675354    0.324842
     12          1           0       -2.613359   -0.720965    1.364569
     13          1           0       -0.368995    0.244120    1.771754
     14          1           0       -0.267422   -1.397716    1.155143
     15          1           0        1.585722    1.569359   -0.903743
     16          1           0        1.443166    1.522235    0.853307
     17          1           0        0.301203    3.503293   -0.104914
     18          1           0       -0.761406    2.460318   -1.073799
     19          1           0       -0.882006    2.467262    0.694716
     20          1           0        0.793754   -1.860354   -0.860451
     21          1           0        1.744501   -0.588616   -1.608473
     22          1           0        3.136357   -1.967910   -0.070939
     23          1           0        2.097701   -1.552990    1.299135
     24          1           0        3.072021   -0.300498    0.512917
 ---------------------------------------------------------------------

 SCF Done:  E(RB3LYP) =  -347.786581757     A.U. after    1 cycles

 Excitation energies and oscillator strengths:

 Excited State   1:      Singlet-A      6.6564 eV  186.26 nm  f=0.0229  <S**2>=0.000
      33 -> 34         0.70193
 This state for optimization and/or second-order correction.
 Total Energy, E(TD-HF/TD-DFT) =  -347.541963211
 Copying the excited state density for this state as the 1-particle RhoCI density.

 Excited State   2:      Singlet-A      7.2141 eV  171.86 nm  f=0.0710  <S**2>=0.000
      32 -> 34        -0.16631
      33 -> 35         0.68207

 Excited State   3:      Singlet-A      7.5249 eV  164.77 nm  f=0.0245  <S**2>=0.000
      32 -> 34         0.50605
      32 -> 35         0.21649
      33 -> 35         0.12763
      33 -> 36        -0.41588

 Excited State   4:      Singlet-A      7.5984 eV  163.17 nm  f=0.0765  <S**2>=0.000
      32 -> 34         0.36050
      32 -> 35         0.16913
      33 -> 35         0.10855
      33 -> 36         0.56572

 Excited State   5:      Singlet-A      7.8540 eV  157.86 nm  f=0.0212  <S**2>=0.000
      33 -> 37         0.70047

 Excited State   6:      Singlet-A      8.0263 eV  154.47 nm  f=0.0262  <S**2>=0.000
      33 -> 38         0.69781

 Excited State   7:      Singlet-A      8.3256 eV  148.92 nm  f=0.0116  <S**2>=0.000
      32 -> 34        -0.27779
      32 -> 35         0.62682

 Excited State   8:      Singlet-A      8.4606 eV  146.54 nm  f=0.0844  <S**2>=0.000
      32 -> 36        -0.13713
      33 -> 39         0.64813
      33 -> 40        -0.19089

 Excited State   9:      Singlet-A      8.5676 eV  144.71 nm  f=0.0098  <S**2>=0.000
      32 -> 36         0.67144
      33 -> 39         0.12714

 Excited State  10:      Singlet-A      8.6782 eV  142.87 nm  f=0.0173  <S**2>=0.000
      32 -> 37         0.14450
      33 -> 39         0.17734
      33 -> 40         0.65047

 The electronic state is 1-A.
 Alpha  occ. eigenvalues --  -14.31773 -14.30548 -10.20313 -10.20292 -10.19859
 Alpha  occ. eigenvalues --  -10.19709 -10.17103 -10.16933  -0.91275  -0.86648
 Alpha  occ. eigenvalues --   -0.75416  -0.73435  -0.69038  -0.62002  -0.61199
 Alpha  occ. eigenvalues --   -0.55324  -0.48787  -0.47224  -0.46053  -0.45078
 Alpha  occ. eigenvalues --   -0.42348  -0.41009  -0.39751  -0.38893  -0.37457
 Alpha  occ. eigenvalues --   -0.36856  -0.36445  -0.34998  -0.33209  -0.32990
 Alpha  occ. eigenvalues --   -0.32321  -0.23752  -0.20277
 Alpha virt. eigenvalues --    0.08021   0.10067   0.10918   0.12512   0.13560
 Alpha virt. eigenvalues --    0.14862   0.15247   0.16187   0.16416   0.17320
 Alpha virt. eigenvalues --    0.17765   0.18448   0.19143   0.19942   0.20624

 Mulliken charges:
               1
     1  N   -0.526304
     2  C   -0.074060
     3  C   -0.017161
     4  N   -0.219933
     5  C   -0.014418
     6  C   -0.334918
     7  C    0.003562
     8  C   -0.288382
     9  H    0.094595
    10  H    0.163594
    11  H    0.113895
    12  H    0.100230
    13  H    0.112265
    14  H    0.019781
    15  H    0.047019
    16  H    0.148060
    17  H    0.109266
    18  H    0.111641
    19  H    0.118589
    20  H   -0.019573
    21  H    0.060316
    22  H    0.090890
    23  H    0.095605
    24  H    0.105443
 Sum of Mulliken charges =  -0.00000

 Dipole moment (field-independent basis, Debye):
    X=              3.0777    Y=              2.9368    Z=              1.8253  Tot=              4.6291
 Quadrupole moment (field-independent basis, Debye-Ang):
   XX=            -63.9766   YY=            -56.7290   ZZ=            -54.3356
   XY=             -3.3672   XZ=             -2.9233   YZ=             -0.3827

 Summary of Natural Population Analysis:

                                       Natural Population
                Natural  -----------------------------------------------
    Atom  No    Charge         Core      Valence    Rydberg      Total
 -----------------------------------------------------------------------
      N    1   -0.90537      1.99968     5.88748    0.01821     7.90537
      C    2   -0.28549      1.99936     4.26720    0.01893     6.28549
      C    3   -0.33785      1.99924     4.32059    0.01801     6.33785
      N    4   -0.08052      1.99935     5.07065    0.01052     7.08052
      C    5   -0.31446      1.99931     4.29880    0.01636     6.31446
      C    6   -0.71174      1.99945     4.70200    0.01029     6.71174
      C    7   -0.32171      1.99934     4.30249    0.01988     6.32171
      C    8   -0.69055      1.99941     4.68251    0.00862     6.69055
      H    9    0.27604      0.00000     0.67252    0.05144     0.72396
      H   10    0.32142      0.00000     0.65173    0.02685     0.67858
      H   11    0.23222      0.00000     0.76221    0.00557     0.76778
      H   12    0.22878      0.00000     0.76133    0.00989     0.77122
      H   13    0.24189      0.00000     0.74220    0.01591     0.75811
      H   14    0.16950      0.00000     0.78436    0.04614     0.83050
      H   15    0.19063      0.00000     0.77714    0.03223     0.80937
      H   16    0.26730      0.00000     0.72041    0.01229     0.73270
      H   17    0.23965      0.00000     0.75381    0.00654     0.76035
      H   18    0.23198      0.00000     0.75954    0.00848     0.76802
      H   19    0.23410      0.00000     0.76098    0.00492     0.76590
      H   20    0.14036      0.00000     0.80463    0.05501     0.85964
      H   21    0.20186      0.00000     0.77087    0.02728     0.79814
      H   22    0.22258      0.00000     0.76431    0.01311     0.77742
      H   23    0.22082      0.00000     0.76672    0.01246     0.77918
      H   24    0.22857      0.00000     0.76241    0.00902     0.77143
 =======================================================================
   * Total *    0.00000     15.99515    49.54688    0.45797    66.00000

 1\1\GINC-CN34\SP\RB3LYP TD-FC\6-31G(d,p)\C6H16N2\QDUEZ\11-Jul-2024\0\\
 # TD(NStates=10, Root=1) B3LYP/6-31G** SCRF=(Solvent=water) volume pop
 =NPA density=current Geom=AllCheck Guess=Read\\UDGSVBYJWHOHNN-UHFFFAOY
 SA-N_conf_2\\0,1\N,0,2.7222521801,-0.9054245672,-0.1139946293\C,0,1.72
 92725781,-1.0412793473,0.9596946273\C,0,0.6137111716,0.0201276055,0.94
 62170321\N,0,-0.1057972203,0.0588190603,-0.3378400847\C,0,-1.446246867
 1,-0.5347995796,-0.2988115195\C,0,-1.4401070598,-2.0478916808,-0.07660
 49884\C,0,-0.0776169986,1.3705208456,-1.0005845235\C,0,-0.8738202782,2

 Normal termination of Gaussian 16 at Thu Jul 11 19:41:28 2024.
