 Gaussian 16, Revision A.03,

 -------------------------------------------------------
 # opt=CalcFc B3LYP/6-31G** SCRF=(Solvent=water) scf=xqc
 -------------------------------------------------------

 ----------------------------------
 UDGSVBYJWHOHNN-UHFFFAOYSA-N_conf_0
 ----------------------------------
 Symbolic Z-matrix:
 Charge =  0 Multiplicity = 1

 SCF Done:  E(RB3LYP) =  -347.781696033     A.U. after   11 cycles
 SCF Done:  E(RB3LYP) =  -347.784397075     A.U. after    9 cycles
 SCF Done:  E(RB3LYP) =  -347.784592794     A.U. after    9 cycles
 SCF Done:  E(RB3LYP) =  -347.784669884     A.U. after    9 cycles
 SCF Done:  E(RB3LYP) =  -347.784744799     A.U. after   10 cycles
 SCF Done:  E(RB3LYP) =  -347.784825044     A.U. after    9 cycles
 SCF Done:  E(RB3LYP) =  -347.784848072     A.U. after   11 cycles
 SCF Done:  E(RB3LYP) =  -347.784885668     A.U. after    9 cycles
 SCF Done:  E(RB3LYP) =  -347.784904272     A.U. after    8 cycles
 SCF Done:  E(RB3LYP) =  -347.784909413     A.U. after    8 cycles
 SCF Done:  E(RB3LYP) =  -347.784908308     A.U. after    7 cycles
 SCF Done:  E(RB3LYP) =  -347.784909615     A.U. after    7 cycles
 SCF Done:  E(RB3LYP) =  -347.784909679     A.U. after    6 cycles
 Optimization completed.
    -- Stationary point found.
 Normal termination of Gaussian 16 at Thu Jul 11 19:06:55 2024.

 ----------------------------------------------------------------------
 # freq B3LYP/6-31G** SCRF=(Solvent=water) volume NMR pop=NPA density=c
 urrent Geom=AllCheck Guess=Read
 ----------------------------------------------------------------------

 Structure from the checkpoint file:  "UDGSVBYJWHOHNN-UHFFFAOYSA-N_conf_0_1.chk"
 ----------------------------------
 UDGSVBYJWHOHNN-UHFFFAOYSA-N_conf_0
 ----------------------------------
 Charge =  0 Multiplicity = 1

 SCF Done:  E(RB3LYP) =  -347.784909679     A.U. after    1 cycles

      1  N    Isotropic =   238.4958   Anisotropy =    27.4438

      2  C    Isotropic =   147.6570   Anisotropy =    42.4548

      3  C    Isotropic =   142.4501   Anisotropy =    50.8008

      4  N    Isotropic =   215.9677   Anisotropy =    43.8697

      5  C    Isotropic =   142.7991   Anisotropy =    49.1274

      6  C    Isotropic =   185.1640   Anisotropy =    11.8139

      7  C    Isotropic =   143.0224   Anisotropy =    48.2763

      8  C    Isotropic =   175.9812   Anisotropy =    24.4887

      9  H    Isotropic =    31.6780   Anisotropy =    12.7915

     10  H    Isotropic =    31.1501   Anisotropy =    15.6280

     11  H    Isotropic =    29.4325   Anisotropy =     4.8045

     12  H    Isotropic =    28.7281   Anisotropy =     5.4983

     13  H    Isotropic =    29.3717   Anisotropy =     4.0672

     14  H    Isotropic =    29.2066   Anisotropy =     5.0905

     15  H    Isotropic =    28.8771   Anisotropy =     7.0382

     16  H    Isotropic =    29.0767   Anisotropy =     8.1408

     17  H    Isotropic =    30.3688   Anisotropy =     7.4628

     18  H    Isotropic =    30.8059   Anisotropy =     7.8941

     19  H    Isotropic =    31.4158   Anisotropy =    10.6600

     20  H    Isotropic =    29.0082   Anisotropy =     6.7633

     21  H    Isotropic =    29.3872   Anisotropy =     7.0044

     22  H    Isotropic =    30.8630   Anisotropy =     8.4683

     23  H    Isotropic =    30.8542   Anisotropy =    10.6941

     24  H    Isotropic =    30.5685   Anisotropy =     6.4217

  Exact polarizability: 108.441  -0.756 103.664   1.043   0.041  92.319
 Approx polarizability: 110.592  -0.431 106.731   2.052   0.352 102.294

                      1                      2                      3
                      A                      A                      A
 Frequencies --     49.1738                85.3736               107.6244
 Red. masses --      2.1890                 2.4554                 1.8571
 Frc consts  --      0.0031                 0.0105                 0.0127
 IR Inten    --      2.9771                 5.7524                 0.3416

                      4                      5                      6
                      A                      A                      A
 Frequencies --    118.8030               172.7234               214.3913
 Red. masses --      2.1218                 2.2171                 1.2061
 Frc consts  --      0.0176                 0.0390                 0.0327
 IR Inten    --      0.2860                 1.6862                 1.7820

                      7                      8                      9
                      A                      A                      A
 Frequencies --    241.5612               258.1883               282.4349
 Red. masses --      1.1584                 1.2775                 1.9872
 Frc consts  --      0.0398                 0.0502                 0.0934
 IR Inten    --     47.8843                 0.7591                26.0652

                     10                     11                     12
                      A                      A                      A
 Frequencies --    324.6484               374.8925               419.1496
 Red. masses --      2.5919                 2.4641                 2.6022
 Frc consts  --      0.1610                 0.2040                 0.2694
 IR Inten    --      0.9118                 2.4963                15.2640

                     13                     14                     15
                      A                      A                      A
 Frequencies --    474.9174               536.9653               777.6726
 Red. masses --      2.7265                 2.6475                 1.5357
 Frc consts  --      0.3623                 0.4498                 0.5472
 IR Inten    --      3.3224                 9.4113                 4.5933

                     16                     17                     18
                      A                      A                      A
 Frequencies --    795.9143               800.3997               810.5238
 Red. masses --      1.1567                 1.7216                 1.1394
 Frc consts  --      0.4317                 0.6498                 0.4410
 IR Inten    --     14.1437                26.3808                10.5787

                     19                     20                     21
                      A                      A                      A
 Frequencies --    897.1377               916.4465               969.8129
 Red. masses --      1.3395                 2.0450                 2.1108
 Frc consts  --      0.6352                 1.0119                 1.1697
 IR Inten    --    151.1114                18.1183                 6.6871

                     22                     23                     24
                      A                      A                      A
 Frequencies --    991.0590              1053.1711              1076.1949
 Red. masses --      2.2485                 2.6875                 2.3710
 Frc consts  --      1.3012                 1.7563                 1.6179
 IR Inten    --      5.9260                40.5823                 7.0945

                     25                     26                     27
                      A                      A                      A
 Frequencies --   1082.4898              1102.9456              1110.9808
 Red. masses --      2.4036                 1.7303                 1.8375
 Frc consts  --      1.6595                 1.2401                 1.3362
 IR Inten    --     52.5273                 9.6812                57.0316

                     28                     29                     30
                      A                      A                      A
 Frequencies --   1126.3155              1181.4443              1235.9680
 Red. masses --      1.6894                 1.4674                 2.2124
 Frc consts  --      1.2627                 1.2067                 1.9913
 IR Inten    --     21.9093                 9.3074                27.7899

                     31                     32                     33
                      A                      A                      A
 Frequencies --   1243.4874              1305.2474              1330.2304
 Red. masses --      1.8471                 1.1943                 1.1184
 Frc consts  --      1.6828                 1.1988                 1.1660
 IR Inten    --     11.0005                 8.1200                 7.3905

                     34                     35                     36
                      A                      A                      A
 Frequencies --   1337.8586              1373.2828              1383.2869
 Red. masses --      1.2307                 1.2404                 1.3903
 Frc consts  --      1.2978                 1.3782                 1.5674
 IR Inten    --     19.1844                15.1696                37.3467

                     37                     38                     39
                      A                      A                      A
 Frequencies --   1393.4041              1406.7564              1412.1613
 Red. masses --      1.2854                 1.2598                 1.2561
 Frc consts  --      1.4704                 1.4689                 1.4758
 IR Inten    --     18.2029                 0.3265                16.9062

                     40                     41                     42
                      A                      A                      A
 Frequencies --   1424.7251              1442.5865              1485.6149
 Red. masses --      1.3422                 1.4762                 1.0652
 Frc consts  --      1.6052                 1.8100                 1.3851
 IR Inten    --     22.0618                 2.8179                 1.0773

                     43                     44                     45
                      A                      A                      A
 Frequencies --   1490.9495              1495.4433              1501.4848
 Red. masses --      1.0558                 1.0476                 1.0432
 Frc consts  --      1.3828                 1.3804                 1.3856
 IR Inten    --      2.3898                 0.5422                 3.4367

                     46                     47                     48
                      A                      A                      A
 Frequencies --   1509.3819              1511.8099              1522.3863
 Red. masses --      1.0640                 1.0729                 1.0916
 Frc consts  --      1.4282                 1.4448                 1.4906
 IR Inten    --      9.2307                 2.0290                 3.3481

                     49                     50                     51
                      A                      A                      A
 Frequencies --   1526.3746              1655.0309              2943.8424
 Red. masses --      1.0877                 1.0875                 1.0724
 Frc consts  --      1.4931                 1.7551                 5.4755
 IR Inten    --      2.0668                38.0557                80.4095

                     52                     53                     54
                      A                      A                      A
 Frequencies --   2951.3015              2972.9903              3031.4082
 Red. masses --      1.0723                 1.0711                 1.0636
 Frc consts  --      5.5030                 5.5781                 5.7588
 IR Inten    --    172.1705                95.0615                69.3984

                     55                     56                     57
                      A                      A                      A
 Frequencies --   3042.3524              3045.1749              3062.1912
 Red. masses --      1.0356                 1.0359                 1.0886
 Frc consts  --      5.6476                 5.6597                 6.0144
 IR Inten    --     37.0206                27.3536                35.7050

                     58                     59                     60
                      A                      A                      A
 Frequencies --   3069.0769              3075.4147              3096.0285
 Red. masses --      1.0891                 1.1005                 1.0906
 Frc consts  --      6.0439                 6.1328                 6.1594
 IR Inten    --     50.0103                37.6485                67.4451

                     61                     62                     63
                      A                      A                      A
 Frequencies --   3111.7401              3111.8627              3118.3681
 Red. masses --      1.1015                 1.1011                 1.1033
 Frc consts  --      6.2838                 6.2824                 6.3215
 IR Inten    --     64.3001                56.1465                65.4067

                     64                     65                     66
                      A                      A                      A
 Frequencies --   3120.2128              3479.4936              3557.7909
 Red. masses --      1.1031                 1.0513                 1.0910
 Frc consts  --      6.3276                 7.4991                 8.1366
 IR Inten    --     78.9747                 1.1093                 0.0125

 - Thermochemistry -
 -------------------
 Temperature   298.150 Kelvin.  Pressure   1.00000 Atm.
 Atom     1 has atomic number  7 and mass  14.00307

 Molecular mass:   116.13135 amu.
 Principal axes and moments of inertia in atomic units:
                           1         2         3
     Eigenvalues --   849.502481382.712832003.63640
           X            0.99989  -0.01208  -0.00883
           Y            0.01204   0.99991  -0.00514
           Z            0.00889   0.00503   0.99995
 This molecule is an asymmetric top.
 Rotational symmetry number  1.
 Warning -- assumption of classical behavior for rotation
           may cause significant error
 Rotational temperatures (Kelvin)      0.10196     0.06264     0.04323
 Rotational constants (GHZ):           2.12447     1.30522     0.90073
 Zero-point vibrational energy     586948.2 (Joules/Mol)
                                  140.28399 (Kcal/Mol)
 Warning -- explicit consideration of  14 degrees of freedom as
           vibrations may cause significant error
 Vibrational temperatures:     70.75   122.83   154.85   170.93   248.51
          (Kelvin)            308.46   347.55   371.48   406.36   467.10
                              539.39   603.06   683.30   772.57  1118.90
                             1145.14  1151.60  1166.16  1290.78  1318.56
                             1395.34  1425.91  1515.28  1548.40  1557.46
                             1586.89  1598.45  1620.52  1699.83  1778.28
                             1789.10  1877.96  1913.90  1924.88  1975.85
                             1990.24  2004.80  2024.01  2031.79  2049.86
                             2075.56  2137.47  2145.14  2151.61  2160.30
                             2171.66  2175.16  2190.37  2196.11  2381.22
                             4235.53  4246.26  4277.47  4361.52  4377.27
                             4381.33  4405.81  4415.72  4424.84  4454.49
                             4477.10  4477.28  4486.64  4489.29  5006.22
                             5118.87

 Zero-point correction=                           0.223557 (Hartree/Particle)
 Thermal correction to Energy=                    0.234253
 Thermal correction to Enthalpy=                  0.235197
 Thermal correction to Gibbs Free Energy=         0.187445
 Sum of electronic and zero-point Energies=           -347.561353
 Sum of electronic and thermal Energies=              -347.550657
 Sum of electronic and thermal Enthalpies=            -347.549713
 Sum of electronic and thermal Free Energies=         -347.597464

                     E (Thermal)             CV                S
                      KCal/Mol        Cal/Mol-Kelvin    Cal/Mol-Kelvin
 Total                  146.996             38.242            100.502
 Electronic               0.000              0.000              0.000
 Translational            0.889              2.981             40.164
 Rotational               0.889              2.981             29.244
 Vibrational            145.218             32.280             31.094
 Vibration     1          0.595              1.978              4.850
 Vibration     2          0.601              1.959              3.763
 Vibration     3          0.606              1.943              3.311
 Vibration     4          0.609              1.934              3.120
 Vibration     5          0.626              1.876              2.406
 Vibration     6          0.644              1.819              2.006
 Vibration     7          0.658              1.777              1.791
 Vibration     8          0.667              1.749              1.674
 Vibration     9          0.681              1.706              1.519
 Vibration    10          0.709              1.626              1.287
 Vibration    11          0.746              1.524              1.060
 Vibration    12          0.782              1.429              0.895
 Vibration    13          0.832              1.306              0.724
 Vibration    14          0.892              1.168              0.572

 Optimization completed.
    -- Stationary point found.
 Normal termination of Gaussian 16 at Thu Jul 11 19:24:41 2024.
 Gaussian 16:  EM64L-G16RevA.03 25-Dec-2016

 ----------------------------------------------------------------------
 # TD(NStates=10, Root=1) B3LYP/6-31G** SCRF=(Solvent=water) volume pop
 =NPA density=current Geom=AllCheck Guess=Read
 ----------------------------------------------------------------------

 Structure from the checkpoint file:  "UDGSVBYJWHOHNN-UHFFFAOYSA-N_conf_0_2.chk"
 ----------------------------------
 UDGSVBYJWHOHNN-UHFFFAOYSA-N_conf_0
 ----------------------------------
 Charge =  0 Multiplicity = 1

                         Standard orientation:
 ---------------------------------------------------------------------
 Center     Atomic      Atomic             Coordinates (Angstroms)
 Number     Number       Type             X           Y           Z
 ---------------------------------------------------------------------
      1          7           0       -3.190063   -0.113614   -0.334096
      2          6           0       -1.967989   -0.074462    0.484238
      3          6           0       -0.730126   -0.113364   -0.418316
      4          7           0        0.520936   -0.063534    0.345285
      5          6           0        0.942570    1.298282    0.702462
      6          6           0        1.468847    2.189648   -0.436346
      7          6           0        1.601832   -0.872067   -0.231827
      8          6           0        1.414637   -2.370446    0.015590
      9          1           0       -3.278559    0.768488   -0.836977
     10          1           0       -4.000371   -0.149182    0.281115
     11          1           0       -1.955538   -0.959792    1.130008
     12          1           0       -1.914065    0.801613    1.151461
     13          1           0       -0.763008   -1.044902   -0.990546
     14          1           0       -0.797759    0.700571   -1.162547
     15          1           0        0.093130    1.796538    1.182985
     16          1           0        1.720400    1.211344    1.471879
     17          1           0        0.721594    2.335683   -1.222794
     18          1           0        2.366097    1.765735   -0.898174
     19          1           0        1.732200    3.177744   -0.043993
     20          1           0        1.730544   -0.691388   -1.314372
     21          1           0        2.537191   -0.554857    0.243607
     22          1           0        1.355957   -2.577796    1.088664
     23          1           0        2.256453   -2.933198   -0.401857
     24          1           0        0.501000   -2.752112   -0.451588
 ---------------------------------------------------------------------

 SCF Done:  E(RB3LYP) =  -347.784909679     A.U. after    1 cycles

 Excitation energies and oscillator strengths:

 Excited State   1:      Singlet-A      6.7156 eV  184.62 nm  f=0.0241  <S**2>=0.000
      33 -> 34         0.67870
      33 -> 35        -0.18893
 This state for optimization and/or second-order correction.
 Total Energy, E(TD-HF/TD-DFT) =  -347.538115420
 Copying the excited state density for this state as the 1-particle RhoCI density.

 Excited State   2:      Singlet-A      7.1052 eV  174.50 nm  f=0.0128  <S**2>=0.000
      33 -> 34         0.17894
      33 -> 35         0.66311

 Excited State   3:      Singlet-A      7.4471 eV  166.49 nm  f=0.0372  <S**2>=0.000
      32 -> 34        -0.39422
      32 -> 35        -0.30552
      33 -> 36         0.49209

 Excited State   4:      Singlet-A      7.4921 eV  165.49 nm  f=0.0110  <S**2>=0.000
      32 -> 34         0.38582
      32 -> 35         0.28414
      33 -> 35         0.12464
      33 -> 36         0.49340

 Excited State   5:      Singlet-A      7.8850 eV  157.24 nm  f=0.0015  <S**2>=0.000
      33 -> 37         0.64032
      33 -> 38         0.25891

 Excited State   6:      Singlet-A      7.9395 eV  156.16 nm  f=0.0295  <S**2>=0.000
      33 -> 37        -0.25919
      33 -> 38         0.65272

 Excited State   7:      Singlet-A      8.0915 eV  153.23 nm  f=0.0121  <S**2>=0.000
      32 -> 34        -0.41691
      32 -> 35         0.53662
      32 -> 37         0.14645

 Excited State   8:      Singlet-A      8.4449 eV  146.82 nm  f=0.0383  <S**2>=0.000
      33 -> 39         0.65267
      33 -> 41         0.20771

 Excited State   9:      Singlet-A      8.5739 eV  144.61 nm  f=0.0325  <S**2>=0.000
      32 -> 36         0.66854
      32 -> 39        -0.12795

 Excited State  10:      Singlet-A      8.6448 eV  143.42 nm  f=0.0745  <S**2>=0.000
      33 -> 40         0.61592
      33 -> 41         0.26583
      33 -> 42         0.14704

 The electronic state is 1-A.
 Alpha  occ. eigenvalues --  -14.31573 -14.30959 -10.20217 -10.20210 -10.19920
 Alpha  occ. eigenvalues --  -10.19800 -10.17006 -10.16906  -0.91104  -0.87067
 Alpha  occ. eigenvalues --   -0.75299  -0.73707  -0.68734  -0.62269  -0.60727
 Alpha  occ. eigenvalues --   -0.55198  -0.48772  -0.48022  -0.45867  -0.44244
 Alpha  occ. eigenvalues --   -0.42858  -0.42227  -0.39690  -0.38843  -0.37753
 Alpha  occ. eigenvalues --   -0.36303  -0.35738  -0.34374  -0.33835  -0.32838
 Alpha  occ. eigenvalues --   -0.32343  -0.23729  -0.20197
 Alpha virt. eigenvalues --    0.08201   0.09330   0.10965   0.12629   0.12873
 Alpha virt. eigenvalues --    0.14765   0.15549   0.15895   0.16437   0.17049
 Alpha virt. eigenvalues --    0.17904   0.18853   0.20033   0.20322   0.21536

 Mulliken charges:
               1
     1  N   -0.616916
     2  C   -0.026491
     3  C    0.014740
     4  N   -0.219272
     5  C   -0.008099
     6  C   -0.250275
     7  C   -0.004901
     8  C   -0.316181
     9  H    0.200269
    10  H    0.237321
    11  H    0.076086
    12  H    0.036026
    13  H    0.056640
    14  H    0.049639
    15  H    0.051405
    16  H    0.041771
    17  H    0.050207
    18  H    0.077332
    19  H    0.075712
    20  H    0.130685
    21  H    0.043303
    22  H    0.109697
    23  H    0.098675
    24  H    0.092628
 Sum of Mulliken charges =   0.00000

 Dipole moment (field-independent basis, Debye):
    X=              1.0788    Y=             -0.0104    Z=              0.8413  Tot=              1.3681
 Quadrupole moment (field-independent basis, Debye-Ang):
   XX=            -55.9262   YY=            -57.7855   ZZ=            -55.6570
   XY=             -4.6407   XZ=             -4.2013   YZ=             -1.0669

 Summary of Natural Population Analysis:

                                       Natural Population
                Natural  -----------------------------------------------
    Atom  No    Charge         Core      Valence    Rydberg      Total
 -----------------------------------------------------------------------
      N    1   -0.92309      1.99967     5.90836    0.01506     7.92309
      C    2   -0.27679      1.99933     4.25931    0.01814     6.27679
      C    3   -0.33162      1.99924     4.31067    0.02171     6.33162
      N    4   -0.03713      1.99933     5.02882    0.00898     7.03713
      C    5   -0.31927      1.99933     4.30081    0.01914     6.31927
      C    6   -0.69612      1.99940     4.68730    0.00941     6.69612
      C    7   -0.31572      1.99931     4.30100    0.01540     6.31572
      C    8   -0.70961      1.99944     4.69937    0.01080     6.70961
      H    9    0.34493      0.00000     0.63406    0.02101     0.65507
      H   10    0.37956      0.00000     0.61134    0.00910     0.62044
      H   11    0.20728      0.00000     0.77641    0.01631     0.79272
      H   12    0.16408      0.00000     0.81114    0.02478     0.83592
      H   13    0.19881      0.00000     0.77364    0.02756     0.80119
      H   14    0.19638      0.00000     0.76084    0.04278     0.80362
      H   15    0.19254      0.00000     0.77461    0.03285     0.80746
      H   16    0.18814      0.00000     0.77697    0.03489     0.81186
      H   17    0.18956      0.00000     0.78433    0.02611     0.81044
      H   18    0.20939      0.00000     0.77341    0.01720     0.79061
      H   19    0.21528      0.00000     0.76825    0.01647     0.78472
      H   20    0.25467      0.00000     0.72567    0.01966     0.74533
      H   21    0.18899      0.00000     0.77420    0.03681     0.81101
      H   22    0.23176      0.00000     0.76069    0.00755     0.76824
      H   23    0.23083      0.00000     0.75945    0.00972     0.76917
      H   24    0.21714      0.00000     0.76886    0.01399     0.78286
 =======================================================================
   * Total *    0.00000     15.99505    49.52950    0.47545    66.00000

 1\1\GINC-CN34\SP\RB3LYP TD-FC\6-31G(d,p)\C6H16N2\QDUEZ\11-Jul-2024\0\\
 # TD(NStates=10, Root=1) B3LYP/6-31G** SCRF=(Solvent=water) volume pop
 =NPA density=current Geom=AllCheck Guess=Read\\UDGSVBYJWHOHNN-UHFFFAOY
 SA-N_conf_0\\0,1\N,0,3.2032687371,0.3262930211,0.7506111794\C,0,2.1173
 834452,0.111043066,-0.2185062744\C,0,0.7739602515,0.0102875795,0.51189
 48221\N,0,-0.3496238726,-0.192132345,-0.4085992549\C,0,-0.8690212803,1
 .0530039536,-0.9914860116\C,0,-1.6551475753,1.9891557634,-0.0566016465
 \C,0,-1.402489382,-1.0666194659,0.1223112362\C,0,-1.0094757168,-2.5452

 Normal termination of Gaussian 16 at Thu Jul 11 19:45:31 2024.
