 Gaussian 16, Revision A.03,

 -------------------------------------------------------
 # opt=CalcFc B3LYP/6-31G** SCRF=(Solvent=water) scf=xqc
 -------------------------------------------------------

 ----------------------------------
 UDGSVBYJWHOHNN-UHFFFAOYSA-N_conf_3
 ----------------------------------
 Symbolic Z-matrix:
 Charge =  0 Multiplicity = 1

 SCF Done:  E(RB3LYP) =  -347.783489874     A.U. after   11 cycles
 SCF Done:  E(RB3LYP) =  -347.786076964     A.U. after    9 cycles
 SCF Done:  E(RB3LYP) =  -347.786206832     A.U. after    9 cycles
 SCF Done:  E(RB3LYP) =  -347.786209290     A.U. after    7 cycles
 SCF Done:  E(RB3LYP) =  -347.786209401     A.U. after    6 cycles
 Optimization completed.
    -- Stationary point found.
 Normal termination of Gaussian 16 at Thu Jul 11 18:57:46 2024.

 ----------------------------------------------------------------------
 # freq B3LYP/6-31G** SCRF=(Solvent=water) volume NMR pop=NPA density=c
 urrent Geom=AllCheck Guess=Read
 ----------------------------------------------------------------------

 Structure from the checkpoint file:  "UDGSVBYJWHOHNN-UHFFFAOYSA-N_conf_3_1.chk"
 ----------------------------------
 UDGSVBYJWHOHNN-UHFFFAOYSA-N_conf_3
 ----------------------------------
 Charge =  0 Multiplicity = 1

 SCF Done:  E(RB3LYP) =  -347.786209401     A.U. after    1 cycles

      1  N    Isotropic =   238.5440   Anisotropy =    27.1892

      2  C    Isotropic =   147.8051   Anisotropy =    42.2294

      3  C    Isotropic =   135.5220   Anisotropy =    56.4474

      4  N    Isotropic =   205.5597   Anisotropy =    23.0191

      5  C    Isotropic =   143.6278   Anisotropy =    48.5830

      6  C    Isotropic =   176.4820   Anisotropy =    23.7989

      7  C    Isotropic =   141.2935   Anisotropy =    51.4433

      8  C    Isotropic =   176.6517   Anisotropy =    23.5630

      9  H    Isotropic =    31.6690   Anisotropy =    12.8925

     10  H    Isotropic =    31.1293   Anisotropy =    15.5587

     11  H    Isotropic =    28.7137   Anisotropy =     6.0429

     12  H    Isotropic =    29.3001   Anisotropy =     4.5902

     13  H    Isotropic =    29.1284   Anisotropy =     4.6177

     14  H    Isotropic =    29.8448   Anisotropy =     5.9307

     15  H    Isotropic =    29.6533   Anisotropy =     7.4394

     16  H    Isotropic =    29.1751   Anisotropy =     6.0671

     17  H    Isotropic =    30.8391   Anisotropy =    10.7243

     18  H    Isotropic =    30.4932   Anisotropy =     6.7465

     19  H    Isotropic =    30.8560   Anisotropy =     8.3425

     20  H    Isotropic =    29.2623   Anisotropy =     5.9367

     21  H    Isotropic =    29.5491   Anisotropy =     7.1455

     22  H    Isotropic =    30.9037   Anisotropy =    10.6401

     23  H    Isotropic =    30.5579   Anisotropy =     7.1284

     24  H    Isotropic =    30.9031   Anisotropy =     8.2150

  Exact polarizability: 108.966   0.342 102.298  -0.144  -0.747  95.734
 Approx polarizability: 110.611  -0.037 106.026  -0.070  -0.755 104.558

                      1                      2                      3
                      A                      A                      A
 Frequencies --     79.2422                86.0691                89.6819
 Red. masses --      2.7107                 2.3915                 1.8373
 Frc consts  --      0.0100                 0.0104                 0.0087
 IR Inten    --      0.2744                 0.1566                 9.3902

                      4                      5                      6
                      A                      A                      A
 Frequencies --     93.8514               180.3576               214.4274
 Red. masses --      2.0849                 1.3828                 1.2323
 Frc consts  --      0.0108                 0.0265                 0.0334
 IR Inten    --      0.2247                 0.8584                 1.1867

                      7                      8                      9
                      A                      A                      A
 Frequencies --    242.5648               267.6710               290.9802
 Red. masses --      1.2656                 1.5726                 1.9351
 Frc consts  --      0.0439                 0.0664                 0.0965
 IR Inten    --     34.8549                22.6739                19.6994

                     10                     11                     12
                      A                      A                      A
 Frequencies --    309.5145               375.8293               426.5849
 Red. masses --      2.0291                 3.1106                 2.7968
 Frc consts  --      0.1145                 0.2589                 0.2999
 IR Inten    --      1.0993                 5.0455                 8.0432

                     13                     14                     15
                      A                      A                      A
 Frequencies --    466.7799               521.1623               779.1193
 Red. masses --      2.6141                 2.8692                 1.7192
 Frc consts  --      0.3356                 0.4591                 0.6149
 IR Inten    --      3.5087                 5.4397                16.1176

                     16                     17                     18
                      A                      A                      A
 Frequencies --    800.9028               806.2684               821.4169
 Red. masses --      1.1468                 1.1389                 1.4644
 Frc consts  --      0.4334                 0.4362                 0.5821
 IR Inten    --     17.5397                 8.4448                19.8338

                     19                     20                     21
                      A                      A                      A
 Frequencies --    898.3895               931.2683               977.5900
 Red. masses --      1.3373                 1.8763                 2.0086
 Frc consts  --      0.6359                 0.9587                 1.1310
 IR Inten    --    153.2178                21.8886                 1.5464

                     22                     23                     24
                      A                      A                      A
 Frequencies --   1011.3144              1065.0425              1078.4464
 Red. masses --      2.4039                 2.7587                 2.4827
 Frc consts  --      1.4486                 1.8437                 1.7013
 IR Inten    --      6.9550                47.7934                31.4585

                     25                     26                     27
                      A                      A                      A
 Frequencies --   1086.4525              1100.8511              1101.9501
 Red. masses --      2.1545                 1.7912                 1.8412
 Frc consts  --      1.4984                 1.2789                 1.3173
 IR Inten    --     29.0787                27.0324                20.8904

                     28                     29                     30
                      A                      A                      A
 Frequencies --   1141.3083              1191.6221              1232.8342
 Red. masses --      1.6036                 1.5934                 2.1483
 Frc consts  --      1.2307                 1.3330                 1.9238
 IR Inten    --     16.4238                 9.8263                26.5119

                     31                     32                     33
                      A                      A                      A
 Frequencies --   1241.4574              1312.3909              1328.3521
 Red. masses --      1.9893                 1.2342                 1.1377
 Frc consts  --      1.8064                 1.2525                 1.1827
 IR Inten    --     15.8073                17.1464                22.1490

                     34                     35                     36
                      A                      A                      A
 Frequencies --   1335.7342              1335.9738              1382.1865
 Red. masses --      1.1745                 1.2120                 1.3254
 Frc consts  --      1.2347                 1.2745                 1.4919
 IR Inten    --     10.6365                24.5658                20.4181

                     37                     38                     39
                      A                      A                      A
 Frequencies --   1399.9319              1408.7163              1425.2609
 Red. masses --      1.2705                 1.2424                 1.3353
 Frc consts  --      1.4670                 1.4527                 1.5981
 IR Inten    --      6.9973                 0.3037                23.7953

                     40                     41                     42
                      A                      A                      A
 Frequencies --   1425.4760              1444.3745              1490.4009
 Red. masses --      1.3773                 1.4935                 1.0548
 Frc consts  --      1.6489                 1.8358                 1.3804
 IR Inten    --     17.0301                 4.7256                 2.4065

                     43                     44                     45
                      A                      A                      A
 Frequencies --   1491.9239              1495.7249              1500.9545
 Red. masses --      1.0542                 1.0502                 1.0458
 Frc consts  --      1.3825                 1.3843                 1.3882
 IR Inten    --      2.2085                 0.5304                 1.1249

                     46                     47                     48
                      A                      A                      A
 Frequencies --   1507.0752              1518.1214              1523.2244
 Red. masses --      1.0668                 1.0809                 1.0901
 Frc consts  --      1.4276                 1.4678                 1.4903
 IR Inten    --      5.7711                 2.4401                 7.6246

                     49                     50                     51
                      A                      A                      A
 Frequencies --   1527.4072              1656.3524              2922.0607
 Red. masses --      1.0897                 1.0874                 1.0733
 Frc consts  --      1.4979                 1.7577                 5.3996
 IR Inten    --      2.6240                38.1022                67.5658

                     52                     53                     54
                      A                      A                      A
 Frequencies --   2928.9044              2934.7789              2973.0420
 Red. masses --      1.0739                 1.0732                 1.0715
 Frc consts  --      5.4277                 5.4463                 5.5804
 IR Inten    --     30.3854               314.8815               108.7624

                     55                     56                     57
                      A                      A                      A
 Frequencies --   3044.2901              3044.8875              3069.9788
 Red. masses --      1.0356                 1.0358                 1.0889
 Frc consts  --      5.6550                 5.6579                 6.0468
 IR Inten    --     34.1976                27.6711                48.7752

                     58                     59                     60
                      A                      A                      A
 Frequencies --   3082.7690              3085.5604              3097.6975
 Red. masses --      1.0883                 1.0873                 1.0896
 Frc consts  --      6.0939                 6.0992                 6.1603
 IR Inten    --     27.0439                21.7876                61.1895

                     61                     62                     63
                      A                      A                      A
 Frequencies --   3113.9646              3115.0489              3120.2058
 Red. masses --      1.1011                 1.1008                 1.1033
 Frc consts  --      6.2909                 6.2934                 6.3284
 IR Inten    --     47.8176                78.9675                83.0037

                     64                     65                     66
                      A                      A                      A
 Frequencies --   3121.1038              3480.4075              3558.6260
 Red. masses --      1.1027                 1.0513                 1.0911
 Frc consts  --      6.3289                 7.5030                 8.1407
 IR Inten    --     62.7867                 1.0829                 0.0081

 - Thermochemistry -
 -------------------
 Temperature   298.150 Kelvin.  Pressure   1.00000 Atm.
 Atom     1 has atomic number  7 and mass  14.00307

 Molecular mass:   116.13135 amu.
 Principal axes and moments of inertia in atomic units:
                           1         2         3
     Eigenvalues --   796.561211484.519222064.16819
           X            0.99995   0.00981  -0.00137
           Y           -0.00981   0.99995  -0.00108
           Z            0.00136   0.00109   1.00000
 This molecule is an asymmetric top.
 Rotational symmetry number  1.
 Warning -- assumption of classical behavior for rotation
           may cause significant error
 Rotational temperatures (Kelvin)      0.10873     0.05834     0.04196
 Rotational constants (GHZ):           2.26567     1.21571     0.87432
 Zero-point vibrational energy     586851.2 (Joules/Mol)
                                  140.26080 (Kcal/Mol)
 Warning -- explicit consideration of  14 degrees of freedom as
           vibrations may cause significant error
 Vibrational temperatures:    114.01   123.83   129.03   135.03   259.49
          (Kelvin)            308.51   349.00   385.12   418.66   445.32
                              540.73   613.76   671.59   749.84  1120.98
                             1152.32  1160.04  1181.84  1292.58  1339.89
                             1406.53  1455.06  1532.36  1551.64  1563.16
                             1583.88  1585.46  1642.09  1714.48  1773.77
                             1786.18  1888.24  1911.20  1921.82  1922.17
                             1988.66  2014.19  2026.83  2050.63  2050.94
                             2078.13  2144.35  2146.55  2152.01  2159.54
                             2168.35  2184.24  2191.58  2197.60  2383.12
                             4204.19  4214.04  4222.49  4277.54  4380.05
                             4380.91  4417.01  4435.42  4439.43  4456.90
                             4480.30  4481.86  4489.28  4490.57  5007.53
                             5120.07

 Zero-point correction=                           0.223520 (Hartree/Particle)
 Thermal correction to Energy=                    0.234208
 Thermal correction to Enthalpy=                  0.235152
 Thermal correction to Gibbs Free Energy=         0.187517
 Sum of electronic and zero-point Energies=           -347.562690
 Sum of electronic and thermal Energies=              -347.552001
 Sum of electronic and thermal Enthalpies=            -347.551057
 Sum of electronic and thermal Free Energies=         -347.598693

                     E (Thermal)             CV                S
                      KCal/Mol        Cal/Mol-Kelvin    Cal/Mol-Kelvin
 Total                  146.968             38.170            100.258
 Electronic               0.000              0.000              0.000
 Translational            0.889              2.981             40.164
 Rotational               0.889              2.981             29.280
 Vibrational            145.190             32.209             30.814
 Vibration     1          0.600              1.963              3.910
 Vibration     2          0.601              1.959              3.747
 Vibration     3          0.602              1.956              3.667
 Vibration     4          0.603              1.954              3.578
 Vibration     5          0.629              1.866              2.325
 Vibration     6          0.644              1.819              2.006
 Vibration     7          0.659              1.775              1.784
 Vibration     8          0.673              1.733              1.611
 Vibration     9          0.687              1.691              1.468
 Vibration    10          0.699              1.656              1.365
 Vibration    11          0.747              1.522              1.056
 Vibration    12          0.788              1.412              0.870
 Vibration    13          0.824              1.324              0.747
 Vibration    14          0.876              1.203              0.607

 Optimization completed.
    -- Stationary point found.
 Normal termination of Gaussian 16 at Thu Jul 11 19:17:06 2024.
 Gaussian 16:  EM64L-G16RevA.03 25-Dec-2016

 ----------------------------------------------------------------------
 # TD(NStates=10, Root=1) B3LYP/6-31G** SCRF=(Solvent=water) volume pop
 =NPA density=current Geom=AllCheck Guess=Read
 ----------------------------------------------------------------------

 Structure from the checkpoint file:  "UDGSVBYJWHOHNN-UHFFFAOYSA-N_conf_3_2.chk"
 ----------------------------------
 UDGSVBYJWHOHNN-UHFFFAOYSA-N_conf_3
 ----------------------------------
 Charge =  0 Multiplicity = 1

                         Standard orientation:
 ---------------------------------------------------------------------
 Center     Atomic      Atomic             Coordinates (Angstroms)
 Number     Number       Type             X           Y           Z
 ---------------------------------------------------------------------
      1          7           0       -3.299890    0.030880    0.010949
      2          6           0       -1.953136   -0.286104   -0.489050
      3          6           0       -0.894583    0.289779    0.455875
      4          7           0        0.474973   -0.004043    0.014865
      5          6           0        1.424221    1.035749    0.441704
      6          6           0        1.359263    2.296958   -0.420473
      7          6           0        0.907007   -1.344509    0.442766
      8          6           0        2.003888   -1.934106   -0.444804
      9          1           0       -3.474067   -0.511686    0.855943
     10          1           0       -3.989093   -0.299172   -0.661604
     11          1           0       -1.780770   -1.365436   -0.633069
     12          1           0       -1.829509    0.182577   -1.471874
     13          1           0       -1.035577    1.373602    0.490258
     14          1           0       -1.074909   -0.076777    1.485292
     15          1           0        1.277489    1.297179    1.506912
     16          1           0        2.433759    0.620705    0.367874
     17          1           0        2.098481    3.028902   -0.078362
     18          1           0        0.376798    2.777672   -0.376808
     19          1           0        1.569789    2.055993   -1.467057
     20          1           0        0.037374   -2.007360    0.401143
     21          1           0        1.237052   -1.338016    1.499095
     22          1           0        2.269520   -2.939506   -0.101521
     23          1           0        2.917259   -1.331131   -0.431194
     24          1           0        1.660872   -2.002006   -1.481839
 ---------------------------------------------------------------------

 SCF Done:  E(RB3LYP) =  -347.786209401     A.U. after    1 cycles

 Excitation energies and oscillator strengths:

 Excited State   1:      Singlet-A      7.1492 eV  173.42 nm  f=0.0128  <S**2>=0.000
      33 -> 34         0.64358
      33 -> 35         0.26031
 This state for optimization and/or second-order correction.
 Total Energy, E(TD-HF/TD-DFT) =  -347.523481053
 Copying the excited state density for this state as the 1-particle RhoCI density.

 Excited State   2:      Singlet-A      7.2790 eV  170.33 nm  f=0.0292  <S**2>=0.000
      32 -> 34         0.14154
      33 -> 34        -0.23740
      33 -> 35         0.64478

 Excited State   3:      Singlet-A      7.4946 eV  165.43 nm  f=0.0331  <S**2>=0.000
      32 -> 34         0.64982
      32 -> 35        -0.19555
      33 -> 34         0.14042

 Excited State   4:      Singlet-A      7.6122 eV  162.87 nm  f=0.0655  <S**2>=0.000
      33 -> 36         0.70446

 Excited State   5:      Singlet-A      7.8512 eV  157.92 nm  f=0.0378  <S**2>=0.000
      33 -> 37         0.69829

 Excited State   6:      Singlet-A      8.1861 eV  151.46 nm  f=0.1670  <S**2>=0.000
      33 -> 38         0.69320

 Excited State   7:      Singlet-A      8.2480 eV  150.32 nm  f=0.0199  <S**2>=0.000
      32 -> 34         0.20182
      32 -> 35         0.62389
      32 -> 37        -0.21984

 Excited State   8:      Singlet-A      8.6132 eV  143.95 nm  f=0.0438  <S**2>=0.000
      32 -> 36         0.62827
      32 -> 37         0.22378
      32 -> 39        -0.11522
      33 -> 39         0.17050

 Excited State   9:      Singlet-A      8.6755 eV  142.91 nm  f=0.1051  <S**2>=0.000
      32 -> 36        -0.16921
      33 -> 39         0.64784
      33 -> 40         0.14030
      33 -> 44        -0.11173

 Excited State  10:      Singlet-A      8.8390 eV  140.27 nm  f=0.0044  <S**2>=0.000
      32 -> 35         0.14282
      32 -> 36        -0.21067
      32 -> 37         0.40542
      32 -> 38         0.22416
      32 -> 39        -0.13026
      32 -> 40         0.13983
      33 -> 40        -0.39277

 The electronic state is 1-A.
 Alpha  occ. eigenvalues --  -14.31799 -14.31014 -10.20230 -10.20204 -10.20043
 Alpha  occ. eigenvalues --  -10.19888 -10.17095 -10.17082  -0.91353  -0.87150
 Alpha  occ. eigenvalues --   -0.75438  -0.74039  -0.68704  -0.61704  -0.60472
 Alpha  occ. eigenvalues --   -0.56090  -0.48878  -0.47730  -0.45557  -0.44611
 Alpha  occ. eigenvalues --   -0.43457  -0.42080  -0.41067  -0.37963  -0.37408
 Alpha  occ. eigenvalues --   -0.36704  -0.35054  -0.34595  -0.34361  -0.32514
 Alpha  occ. eigenvalues --   -0.32221  -0.23776  -0.20916
 Alpha virt. eigenvalues --    0.08676   0.09467   0.10823   0.11796   0.13011
 Alpha virt. eigenvalues --    0.14961   0.15343   0.16085   0.16768   0.17229
 Alpha virt. eigenvalues --    0.18019   0.18672   0.19288   0.20178   0.21517

 Mulliken charges:
               1
     1  N   -0.535800
     2  C    0.011961
     3  C    0.005050
     4  N   -0.229699
     5  C   -0.049305
     6  C   -0.325976
     7  C   -0.015735
     8  C   -0.334982
     9  H    0.078501
    10  H    0.142652
    11  H   -0.046818
    12  H    0.025262
    13  H    0.071187
    14  H    0.070154
    15  H    0.174057
    16  H    0.100995
    17  H    0.118590
    18  H    0.102153
    19  H    0.122797
    20  H    0.016126
    21  H    0.151390
    22  H    0.120069
    23  H    0.110337
    24  H    0.117033
 Sum of Mulliken charges =  -0.00000

 Dipole moment (field-independent basis, Debye):
    X=              6.5669    Y=              0.4055    Z=              1.0831  Tot=              6.6680
 Quadrupole moment (field-independent basis, Debye-Ang):
   XX=            -65.0275   YY=            -55.5468   ZZ=            -53.0496
   XY=              2.2735   XZ=              2.1783   YZ=              0.4449

 Summary of Natural Population Analysis:

                                       Natural Population
                Natural  -----------------------------------------------
    Atom  No    Charge         Core      Valence    Rydberg      Total
 -----------------------------------------------------------------------
      N    1   -0.91188      1.99964     5.89341    0.01882     7.91188
      C    2   -0.29176      1.99936     4.26999    0.02241     6.29176
      C    3   -0.32391      1.99925     4.30460    0.02006     6.32391
      N    4   -0.05879      1.99929     5.04958    0.00992     7.05879
      C    5   -0.30911      1.99930     4.29526    0.01455     6.30911
      C    6   -0.71091      1.99945     4.70114    0.01032     6.71091
      C    7   -0.32093      1.99930     4.30451    0.01712     6.32093
      C    8   -0.71336      1.99945     4.70294    0.01097     6.71336
      H    9    0.25747      0.00000     0.68993    0.05261     0.74253
      H   10    0.31158      0.00000     0.65524    0.03317     0.68842
      H   11    0.10671      0.00000     0.84528    0.04801     0.89329
      H   12    0.17529      0.00000     0.79702    0.02769     0.82471
      H   13    0.21226      0.00000     0.76330    0.02444     0.78774
      H   14    0.21672      0.00000     0.74496    0.03832     0.78328
      H   15    0.28266      0.00000     0.71096    0.00638     0.71734
      H   16    0.22636      0.00000     0.75525    0.01838     0.77364
      H   17    0.24593      0.00000     0.74859    0.00548     0.75407
      H   18    0.22081      0.00000     0.76722    0.01197     0.77919
      H   19    0.23942      0.00000     0.75588    0.00470     0.76058
      H   20    0.16420      0.00000     0.78890    0.04690     0.83580
      H   21    0.27103      0.00000     0.71706    0.01191     0.72897
      H   22    0.24654      0.00000     0.74882    0.00464     0.75346
      H   23    0.22850      0.00000     0.76452    0.00698     0.77150
      H   24    0.23517      0.00000     0.75863    0.00620     0.76483
 =======================================================================
   * Total *   -0.00000     15.99503    49.53299    0.47198    66.00000

 1\1\GINC-CN34\SP\RB3LYP TD-FC\6-31G(d,p)\C6H16N2\QDUEZ\11-Jul-2024\0\\
 # TD(NStates=10, Root=1) B3LYP/6-31G** SCRF=(Solvent=water) volume pop
 =NPA density=current Geom=AllCheck Guess=Read\\UDGSVBYJWHOHNN-UHFFFAOY
 SA-N_conf_3\\0,1\N,0,3.0209794657,-1.3080042429,-0.9024954016\C,0,1.86
 22280574,-1.0525546824,-0.032860518\C,0,0.8687972412,-0.1278055751,-0.
 7420809434\N,0,-0.3186102298,0.1564777699,0.0738548357\C,0,-0.89177209
 67,1.4764725078,-0.2319697893\C,0,-0.1130723012,2.629525108,0.40231282
 69\C,0,-1.3235847855,-0.9130054519,-0.0394312188\C,0,-2.2508009081,-0.

 Normal termination of Gaussian 16 at Thu Jul 11 19:37:45 2024.
