 Gaussian 16, Revision A.03,

 -------------------------------------------------------
 # opt=CalcFc B3LYP/6-31G** SCRF=(Solvent=water) scf=xqc
 -------------------------------------------------------

 ----------------------------------
 ZLSMCQSGRWNEGX-UHFFFAOYSA-N_conf_2
 ----------------------------------
 Symbolic Z-matrix:
 Charge =  0 Multiplicity = 1

 SCF Done:  E(RB3LYP) =  -687.382132609     A.U. after   13 cycles
 SCF Done:  E(RB3LYP) =  -687.387762208     A.U. after   11 cycles
 SCF Done:  E(RB3LYP) =  -687.388038338     A.U. after   10 cycles
 SCF Done:  E(RB3LYP) =  -687.388044984     A.U. after    9 cycles
 SCF Done:  E(RB3LYP) =  -687.388047270     A.U. after    8 cycles
 Optimization completed.
    -- Stationary point found.
 Normal termination of Gaussian 16 at Sun Jul 21 13:18:10 2024.

 ----------------------------------------------------------------------
 # freq B3LYP/6-31G** SCRF=(Solvent=water) volume NMR pop=NPA density=c
 urrent Geom=AllCheck Guess=Read
 ----------------------------------------------------------------------

 Structure from the checkpoint file:  "ZLSMCQSGRWNEGX-UHFFFAOYSA-N_conf_2_1.chk"
 ----------------------------------
 ZLSMCQSGRWNEGX-UHFFFAOYSA-N_conf_2
 ----------------------------------
 Charge =  0 Multiplicity = 1

 SCF Done:  E(RB3LYP) =  -687.388047270     A.U. after    1 cycles

      1  O    Isotropic =  -173.7567   Anisotropy =   804.4304

      2  C    Isotropic =     5.0168   Anisotropy =   147.4794

      3  C    Isotropic =    68.7636   Anisotropy =   149.6287

      4  C    Isotropic =    64.0644   Anisotropy =   173.6656

      5  C    Isotropic =    82.6052   Anisotropy =   129.3930

      6  C    Isotropic =    46.5402   Anisotropy =   167.1951

      7  N    Isotropic =   193.0516   Anisotropy =    69.7542

      8  C    Isotropic =    84.9683   Anisotropy =   126.1527

      9  C    Isotropic =    63.3909   Anisotropy =   167.0924

     10  C    Isotropic =    68.7636   Anisotropy =   149.6287

     11  C    Isotropic =    64.0644   Anisotropy =   173.6657

     12  C    Isotropic =    82.6052   Anisotropy =   129.3930

     13  C    Isotropic =    46.5402   Anisotropy =   167.1951

     14  N    Isotropic =   193.0516   Anisotropy =    69.7542

     15  C    Isotropic =    84.9683   Anisotropy =   126.1527

     16  C    Isotropic =    63.3909   Anisotropy =   167.0925

     17  H    Isotropic =    23.8561   Anisotropy =     6.7042

     18  H    Isotropic =    25.0230   Anisotropy =     5.6132

     19  H    Isotropic =    28.0767   Anisotropy =    12.0358

     20  H    Isotropic =    28.0633   Anisotropy =    11.9353

     21  H    Isotropic =    25.1931   Anisotropy =     6.0364

     22  H    Isotropic =    24.1878   Anisotropy =     9.2613

     23  H    Isotropic =    23.8561   Anisotropy =     6.7042

     24  H    Isotropic =    25.0230   Anisotropy =     5.6132

     25  H    Isotropic =    28.0633   Anisotropy =    11.9353

     26  H    Isotropic =    28.0767   Anisotropy =    12.0358

     27  H    Isotropic =    25.1931   Anisotropy =     6.0364

     28  H    Isotropic =    24.1878   Anisotropy =     9.2613

  Exact polarizability: 364.004  -0.000 216.657 -18.894  -0.000  92.147
 Approx polarizability: 396.421  -0.000 285.995 -20.866  -0.000 117.531

                      1                      2                      3
                      A                      A                      A
 Frequencies --     42.3439                58.4750                74.9861
 Red. masses --      4.2606                 4.6066                 3.9378
 Frc consts  --      0.0045                 0.0093                 0.0130
 IR Inten    --      6.3032                 3.1206                 0.0120

                      4                      5                      6
                      A                      A                      A
 Frequencies --    105.7324               154.7181               205.7436
 Red. masses --      7.0351                 5.0978                 5.3288
 Frc consts  --      0.0463                 0.0719                 0.1329
 IR Inten    --      3.9433                 0.2047                 3.2795

                      7                      8                      9
                      A                      A                      A
 Frequencies --    253.1303               267.6851               309.7703
 Red. masses --      5.8233                 5.1854                 5.3447
 Frc consts  --      0.2198                 0.2189                 0.3022
 IR Inten    --      0.0128                46.2818                 0.1144

                     10                     11                     12
                      A                      A                      A
 Frequencies --    370.9113               380.2837               383.0751
 Red. masses --      5.5854                 1.1480                 1.0992
 Frc consts  --      0.4527                 0.0978                 0.0950
 IR Inten    --      8.9804                29.7129                17.8026

                     13                     14                     15
                      A                      A                      A
 Frequencies --    395.2981               405.4736               421.5072
 Red. masses --      2.4454                 3.1313                 3.0494
 Frc consts  --      0.2251                 0.3033                 0.3192
 IR Inten    --      3.2274                30.2869                29.5645

                     16                     17                     18
                      A                      A                      A
 Frequencies --    433.8066               469.0003               474.7679
 Red. masses --      3.2128                 1.3374                 1.3831
 Frc consts  --      0.3562                 0.1733                 0.1837
 IR Inten    --      0.4775              1482.3406                10.5304

                     19                     20                     21
                      A                      A                      A
 Frequencies --    514.2338               519.8294               563.7199
 Red. masses --      3.2613                 3.4325                 3.3432
 Frc consts  --      0.5081                 0.5465                 0.6260
 IR Inten    --    212.4527                24.6466                 1.7361

                     22                     23                     24
                      A                      A                      A
 Frequencies --    598.6264               647.1775               652.0057
 Red. masses --      4.7137                 6.8062                 6.7345
 Frc consts  --      0.9952                 1.6796                 1.6868
 IR Inten    --      7.5015                 3.7889                 0.5590

                     25                     26                     27
                      A                      A                      A
 Frequencies --    679.5212               693.2564               737.7136
 Red. masses --      5.0461                 3.5881                 4.6230
 Frc consts  --      1.3728                 1.0160                 1.4823
 IR Inten    --      1.3584                 9.8802                 0.6152

                     28                     29                     30
                      A                      A                      A
 Frequencies --    779.6610               831.4630               834.5064
 Red. masses --      4.3288                 1.2818                 4.5895
 Frc consts  --      1.5504                 0.5221                 1.8831
 IR Inten    --     95.0272                 9.9626                 7.7259

                     31                     32                     33
                      A                      A                      A
 Frequencies --    835.0187               844.9792               849.9558
 Red. masses --      1.2547                 1.7169                 4.9652
 Frc consts  --      0.5155                 0.7222                 2.1134
 IR Inten    --      2.3274                22.9568                 0.5415

                     34                     35                     36
                      A                      A                      A
 Frequencies --    857.7798               939.4721               970.1461
 Red. masses --      2.0515                 5.3111                 1.3554
 Frc consts  --      0.8893                 2.7619                 0.7516
 IR Inten    --     59.3628                92.0290                 0.5243

                     37                     38                     39
                      A                      A                      A
 Frequencies --    974.5641               977.2263               984.3850
 Red. masses --      1.3024                 1.3928                 1.2638
 Frc consts  --      0.7288                 0.7836                 0.7215
 IR Inten    --      0.5430                27.9734                 0.0433

                     40                     41                     42
                      A                      A                      A
 Frequencies --   1024.1886              1027.9908              1083.2984
 Red. masses --      2.8423                 2.4265                 1.4424
 Frc consts  --      1.7566                 1.5108                 0.9973
 IR Inten    --      0.6359                 0.6019                 0.6365

                     43                     44                     45
                      A                      A                      A
 Frequencies --   1084.5108              1155.3475              1157.8780
 Red. masses --      1.4381                 1.1910                 1.1982
 Frc consts  --      0.9966                 0.9367                 0.9465
 IR Inten    --      2.8917                37.1418                10.7371

                     46                     47                     48
                      A                      A                      A
 Frequencies --   1173.2668              1193.9355              1217.6596
 Red. masses --      2.3183                 1.1586                 1.3763
 Frc consts  --      1.8802                 0.9731                 1.2023
 IR Inten    --     65.0897               462.1650                 2.8123

                     49                     50                     51
                      A                      A                      A
 Frequencies --   1305.8011              1336.2194              1337.0326
 Red. masses --      3.3325                 2.9634                 2.2803
 Frc consts  --      3.3479                 3.1174                 2.4018
 IR Inten    --    770.8269               399.0620                57.1432

                     52                     53                     54
                      A                      A                      A
 Frequencies --   1341.5218              1341.6678              1376.6565
 Red. masses --      1.7973                 1.9232                 3.6560
 Frc consts  --      1.9058                 2.0397                 4.0823
 IR Inten    --    182.8706                11.2758                12.0981

                     55                     56                     57
                      A                      A                      A
 Frequencies --   1377.1591              1478.7947              1479.1278
 Red. masses --      3.5611                 3.1358                 3.1227
 Frc consts  --      3.9792                 4.0403                 4.0252
 IR Inten    --      4.3210                 4.7830                49.0488

                     58                     59                     60
                      A                      A                      A
 Frequencies --   1552.4771              1557.3886              1604.1998
 Red. masses --      2.6299                 2.7675                 6.2358
 Frc consts  --      3.7346                 3.9549                 9.4549
 IR Inten    --     21.1752                24.2457                50.3395

                     61                     62                     63
                      A                      A                      A
 Frequencies --   1608.2686              1641.9312              1649.8677
 Red. masses --      5.9494                 5.5424                 2.9136
 Frc consts  --      9.0666                 8.8035                 4.6728
 IR Inten    --     32.7703               482.1893               436.9665

                     64                     65                     66
                      A                      A                      A
 Frequencies --   1660.2768              1663.3807              1688.8189
 Red. masses --      1.2361                 1.4369                 7.7230
 Frc consts  --      2.0075                 2.3423                12.9779
 IR Inten    --    231.3256               696.9170                65.3087

                     67                     68                     69
                      A                      A                      A
 Frequencies --   3182.5303              3182.6036              3185.0119
 Red. masses --      1.0892                 1.0891                 1.0888
 Frc consts  --      6.4995                 6.4996                 6.5078
 IR Inten    --     49.2931                 1.5246                25.4538

                     70                     71                     72
                      A                      A                      A
 Frequencies --   3185.7560              3209.3561              3210.2732
 Red. masses --      1.0892                 1.0924                 1.0926
 Frc consts  --      6.5132                 6.6294                 6.6346
 IR Inten    --     27.3809                28.2265                15.5415

                     73                     74                     75
                      A                      A                      A
 Frequencies --   3210.5044              3215.1570              3580.1480
 Red. masses --      1.0933                 1.0923                 1.0477
 Frc consts  --      6.6396                 6.6525                 7.9119
 IR Inten    --      0.7460                 8.6114               146.7725

                     76                     77                     78
                      A                      A                      A
 Frequencies --   3580.3342              3689.8286              3689.8290
 Red. masses --      1.0478                 1.1005                 1.1005
 Frc consts  --      7.9133                 8.8279                 8.8279
 IR Inten    --     46.7172                26.9511                48.9907

 - Thermochemistry -
 -------------------
 Temperature   298.150 Kelvin.  Pressure   1.00000 Atm.
 Atom     1 has atomic number  8 and mass  15.99491

 Molecular mass:   212.09496 amu.
 Principal axes and moments of inertia in atomic units:
                           1         2         3
     Eigenvalues --  1286.645037306.654278328.05321
           X            0.99999  -0.00000  -0.00411
           Y            0.00000   1.00000  -0.00000
           Z            0.00411   0.00000   0.99999
 This molecule is an asymmetric top.
 Rotational symmetry number  1.
 Warning -- assumption of classical behavior for rotation
           may cause significant error
 Rotational temperatures (Kelvin)      0.06732     0.01185     0.01040
 Rotational constants (GHZ):           1.40267     0.24700     0.21671
 Zero-point vibrational energy     590548.2 (Joules/Mol)
                                  141.14441 (Kcal/Mol)
 Warning -- explicit consideration of  22 degrees of freedom as
           vibrations may cause significant error
 Vibrational temperatures:     60.92    84.13   107.89   152.13   222.60
          (Kelvin)            296.02   364.20   385.14   445.69   533.66
                              547.14   551.16   568.75   583.39   606.45
                              624.15   674.79   683.09   739.87   747.92
                              811.07   861.29   931.14   938.09   977.68
                              997.44  1061.41  1121.76  1196.29  1200.67
                             1201.41  1215.74  1222.90  1234.15  1351.69
                             1395.82  1402.18  1406.01  1416.31  1473.58
                             1479.05  1558.62  1560.37  1662.29  1665.93
                             1688.07  1717.81  1751.94  1878.76  1922.52
                             1923.69  1930.15  1930.36  1980.70  1981.42
                             2127.66  2128.13  2233.67  2240.73  2308.09
                             2313.94  2362.37  2373.79  2388.77  2393.23
                             2429.83  4578.95  4579.06  4582.52  4583.59
                             4617.55  4618.87  4619.20  4625.89  5151.03
                             5151.30  5308.84  5308.84

 Zero-point correction=                           0.224928 (Hartree/Particle)
 Thermal correction to Energy=                    0.238524
 Thermal correction to Enthalpy=                  0.239468
 Thermal correction to Gibbs Free Energy=         0.184456
 Sum of electronic and zero-point Energies=           -687.163119
 Sum of electronic and thermal Energies=              -687.149523
 Sum of electronic and thermal Enthalpies=            -687.148579
 Sum of electronic and thermal Free Energies=         -687.203591

                     E (Thermal)             CV                S
                      KCal/Mol        Cal/Mol-Kelvin    Cal/Mol-Kelvin
 Total                  149.676             54.657            115.783
 Electronic               0.000              0.000              0.000
 Translational            0.889              2.981             41.959
 Rotational               0.889              2.981             32.726
 Vibrational            147.899             48.695             41.098
 Vibration     1          0.595              1.980              5.146
 Vibration     2          0.596              1.974              4.508
 Vibration     3          0.599              1.966              4.018
 Vibration     4          0.605              1.945              3.346
 Vibration     5          0.620              1.897              2.613
 Vibration     6          0.640              1.832              2.081
 Vibration     7          0.664              1.758              1.709
 Vibration     8          0.673              1.732              1.611
 Vibration     9          0.699              1.655              1.364
 Vibration    10          0.743              1.532              1.076
 Vibration    11          0.750              1.512              1.038
 Vibration    12          0.752              1.506              1.027
 Vibration    13          0.762              1.480              0.980
 Vibration    14          0.770              1.458              0.943
 Vibration    15          0.784              1.423              0.887
 Vibration    16          0.795              1.397              0.846
 Vibration    17          0.826              1.319              0.740
 Vibration    18          0.831              1.306              0.724
 Vibration    19          0.869              1.218              0.623
 Vibration    20          0.875              1.206              0.610
 Vibration    21          0.919              1.110              0.516
 Vibration    22          0.957              1.035              0.452

 Optimization completed.
    -- Stationary point found.
 Normal termination of Gaussian 16 at Sun Jul 21 13:33:50 2024.
 Gaussian 16:  ES64L-G16RevA.03 25-Dec-2016

 ----------------------------------------------------------------------
 # TD(NStates=10, Root=1) B3LYP/6-31G** SCRF=(Solvent=water) volume pop
 =NPA density=current Geom=AllCheck Guess=Read
 ----------------------------------------------------------------------

 Structure from the checkpoint file:  "ZLSMCQSGRWNEGX-UHFFFAOYSA-N_conf_2_2.chk"
 ----------------------------------
 ZLSMCQSGRWNEGX-UHFFFAOYSA-N_conf_2
 ----------------------------------
 Charge =  0 Multiplicity = 1

                         Standard orientation:
 ---------------------------------------------------------------------
 Center     Atomic      Atomic             Coordinates (Angstroms)
 Number     Number       Type             X           Y           Z
 ---------------------------------------------------------------------
      1          8           0       -0.000000    2.540558    0.000001
      2          6           0       -0.000000    1.301203    0.000000
      3          6           0        1.294222    0.566292    0.007820
      4          6           0        2.436722    1.216721   -0.497629
      5          6           0        3.682411    0.612573   -0.482131
      6          6           0        3.847021   -0.675482    0.074847
      7          7           0        5.095981   -1.257794    0.148941
      8          6           0        2.713284   -1.322198    0.608872
      9          6           0        1.466074   -0.713376    0.568240
     10          6           0       -1.294222    0.566292   -0.007820
     11          6           0       -2.436722    1.216721    0.497628
     12          6           0       -3.682411    0.612573    0.482130
     13          6           0       -3.847021   -0.675482   -0.074848
     14          7           0       -5.095981   -1.257795   -0.148941
     15          6           0       -2.713283   -1.322198   -0.608871
     16          6           0       -1.466074   -0.713376   -0.568238
     17          1           0        2.321477    2.211245   -0.916112
     18          1           0        4.545184    1.127581   -0.895979
     19          1           0        5.796952   -0.911369   -0.491248
     20          1           0        5.123893   -2.261647    0.261963
     21          1           0        2.823546   -2.303652    1.061654
     22          1           0        0.619173   -1.230623    1.005809
     23          1           0       -2.321478    2.211246    0.916110
     24          1           0       -4.545185    1.127582    0.895978
     25          1           0       -5.123893   -2.261647   -0.261963
     26          1           0       -5.796952   -0.911369    0.491247
     27          1           0       -2.823546   -2.303653   -1.061652
     28          1           0       -0.619173   -1.230624   -1.005807
 ---------------------------------------------------------------------

 SCF Done:  E(RB3LYP) =  -687.388047270     A.U. after    1 cycles

 Excitation energies and oscillator strengths:

 Excited State   1:      Singlet-A      3.6583 eV  338.91 nm  f=0.8261  <S**2>=0.000
      56 -> 57         0.70437
 This state for optimization and/or second-order correction.
 Total Energy, E(TD-HF/TD-DFT) =  -687.253607339
 Copying the excited state density for this state as the 1-particle RhoCI density.

 Excited State   2:      Singlet-A      3.7530 eV  330.36 nm  f=0.0250  <S**2>=0.000
      53 -> 57         0.11528
      54 -> 57         0.55139
      55 -> 57         0.41382

 Excited State   3:      Singlet-A      4.1448 eV  299.13 nm  f=0.0966  <S**2>=0.000
      54 -> 57        -0.40578
      55 -> 57         0.56170

 Excited State   4:      Singlet-A      4.6185 eV  268.45 nm  f=0.0227  <S**2>=0.000
      53 -> 57        -0.45387
      55 -> 59        -0.21819
      56 -> 58         0.47590

 Excited State   5:      Singlet-A      4.6665 eV  265.69 nm  f=0.0054  <S**2>=0.000
      52 -> 57         0.43165
      55 -> 58         0.41723
      56 -> 59        -0.35311

 Excited State   6:      Singlet-A      4.9949 eV  248.22 nm  f=0.0959  <S**2>=0.000
      53 -> 57         0.41613
      55 -> 59         0.23455
      56 -> 58         0.50570

 Excited State   7:      Singlet-A      5.0118 eV  247.38 nm  f=0.0123  <S**2>=0.000
      52 -> 57        -0.25248
      55 -> 58         0.55486
      56 -> 59         0.35244

 Excited State   8:      Singlet-A      5.1230 eV  242.01 nm  f=0.0596  <S**2>=0.000
      52 -> 57         0.49514
      56 -> 59         0.48446

 Excited State   9:      Singlet-A      5.1551 eV  240.51 nm  f=0.1160  <S**2>=0.000
      53 -> 57        -0.31134
      55 -> 59         0.61135

 Excited State  10:      Singlet-A      5.4213 eV  228.70 nm  f=0.2698  <S**2>=0.000
      55 -> 60         0.69537

 The electronic state is 1-A.
 Alpha  occ. eigenvalues --  -19.12208 -14.34675 -14.34675 -10.26646 -10.23988
 Alpha  occ. eigenvalues --  -10.23988 -10.19716 -10.19716 -10.19401 -10.19401
 Alpha  occ. eigenvalues --  -10.18811 -10.18811 -10.18804 -10.18804 -10.18776
 Alpha  occ. eigenvalues --  -10.18776  -1.01881  -0.92515  -0.92510  -0.84599
 Alpha  occ. eigenvalues --   -0.83924  -0.75573  -0.74819  -0.74657  -0.72790
 Alpha  occ. eigenvalues --   -0.64123  -0.61800  -0.61619  -0.60162  -0.55437
 Alpha  occ. eigenvalues --   -0.52867  -0.52161  -0.51351  -0.51192  -0.48654
 Alpha  occ. eigenvalues --   -0.44557  -0.44053  -0.43973  -0.42781  -0.42208
 Alpha  occ. eigenvalues --   -0.42051  -0.42019  -0.39948  -0.38962  -0.38169
 Alpha  occ. eigenvalues --   -0.37196  -0.36912  -0.34027  -0.33864  -0.31629
 Alpha  occ. eigenvalues --   -0.30514  -0.25789  -0.25603  -0.24494  -0.21181
 Alpha  occ. eigenvalues --   -0.20698
 Alpha virt. eigenvalues --   -0.05081  -0.00804  -0.00093   0.00707   0.06846
 Alpha virt. eigenvalues --    0.09046   0.09492   0.10962   0.11822   0.12747
 Alpha virt. eigenvalues --    0.13028   0.15612   0.17230   0.17251   0.17734

 Mulliken charges:
               1
     1  O   -0.636290
     2  C    0.208659
     3  C    0.073015
     4  C   -0.137370
     5  C   -0.113861
     6  C    0.269887
     7  N   -0.626827
     8  C   -0.118717
     9  C   -0.148355
    10  C    0.073015
    11  C   -0.137371
    12  C   -0.113861
    13  C    0.269886
    14  N   -0.626828
    15  C   -0.118717
    16  C   -0.148356
    17  H    0.093434
    18  H    0.108350
    19  H    0.300894
    20  H    0.301024
    21  H    0.109792
    22  H    0.102553
    23  H    0.093434
    24  H    0.108350
    25  H    0.301024
    26  H    0.300893
    27  H    0.109792
    28  H    0.102553
 Sum of Mulliken charges =  -0.00000

 Dipole moment (field-independent basis, Debye):
    X=              0.0001    Y=            -10.5162    Z=              0.0000  Tot=             10.5162
 Quadrupole moment (field-independent basis, Debye-Ang):
   XX=            -20.7045   YY=            -92.8278   ZZ=            -94.1420
   XY=             -0.0000   XZ=            -12.2844   YZ=             -0.0000

 Summary of Natural Population Analysis:

                                       Natural Population
                Natural  -----------------------------------------------
    Atom  No    Charge         Core      Valence    Rydberg      Total
 -----------------------------------------------------------------------
      O    1   -0.72624      1.99982     6.71049    0.01593     8.72624
      C    2    0.33713      1.99921     3.62652    0.03714     5.66287
      C    3   -0.07483      1.99899     4.05933    0.01652     6.07483
      C    4   -0.23224      1.99908     4.21732    0.01584     6.23224
      C    5   -0.25499      1.99905     4.24321    0.01273     6.25499
      C    6    0.16344      1.99901     3.81958    0.01797     5.83656
      N    7   -0.76813      1.99948     5.75724    0.01141     7.76813
      C    8   -0.25419      1.99905     4.24197    0.01317     6.25419
      C    9   -0.24212      1.99908     4.22967    0.01336     6.24212
      C   10   -0.07483      1.99899     4.05933    0.01652     6.07483
      C   11   -0.23224      1.99908     4.21732    0.01584     6.23224
      C   12   -0.25499      1.99905     4.24321    0.01273     6.25499
      C   13    0.16343      1.99901     3.81958    0.01797     5.83657
      N   14   -0.76813      1.99948     5.75724    0.01141     7.76813
      C   15   -0.25419      1.99905     4.24197    0.01317     6.25419
      C   16   -0.24212      1.99908     4.22967    0.01336     6.24212
      H   17    0.25167      0.00000     0.74532    0.00301     0.74833
      H   18    0.24838      0.00000     0.75007    0.00155     0.75162
      H   19    0.42912      0.00000     0.56840    0.00248     0.57088
      H   20    0.42936      0.00000     0.56819    0.00245     0.57064
      H   21    0.24931      0.00000     0.74915    0.00155     0.75069
      H   22    0.24978      0.00000     0.74852    0.00170     0.75022
      H   23    0.25167      0.00000     0.74532    0.00301     0.74833
      H   24    0.24838      0.00000     0.75007    0.00155     0.75162
      H   25    0.42936      0.00000     0.56819    0.00245     0.57064
      H   26    0.42912      0.00000     0.56840    0.00248     0.57088
      H   27    0.24931      0.00000     0.74915    0.00155     0.75069
      H   28    0.24978      0.00000     0.74852    0.00170     0.75022
 =======================================================================
   * Total *    0.00000     31.98651    79.73291    0.28058   112.00000

 Normal termination of Gaussian 16 at Sun Jul 21 13:50:11 2024.
