 Gaussian 16, Revision A.03,

 -------------------------------------------------------
 # opt=CalcFc B3LYP/6-31G** SCRF=(Solvent=water) scf=xqc
 -------------------------------------------------------

 ----------------------------------
 ZLSMCQSGRWNEGX-UHFFFAOYSA-N_conf_1
 ----------------------------------
 Symbolic Z-matrix:
 Charge =  0 Multiplicity = 1

 SCF Done:  E(RB3LYP) =  -687.382014534     A.U. after   13 cycles
 SCF Done:  E(RB3LYP) =  -687.387692016     A.U. after   12 cycles
 SCF Done:  E(RB3LYP) =  -687.388076541     A.U. after   10 cycles
 SCF Done:  E(RB3LYP) =  -687.388087554     A.U. after    8 cycles
 SCF Done:  E(RB3LYP) =  -687.388088889     A.U. after    8 cycles
 SCF Done:  E(RB3LYP) =  -687.388089159     A.U. after    7 cycles
 Optimization completed.
    -- Stationary point found.
 Normal termination of Gaussian 16 at Sun Jul 21 13:13:32 2024.

 ----------------------------------------------------------------------
 # freq B3LYP/6-31G** SCRF=(Solvent=water) volume NMR pop=NPA density=c
 urrent Geom=AllCheck Guess=Read
 ----------------------------------------------------------------------

 Structure from the checkpoint file:  "ZLSMCQSGRWNEGX-UHFFFAOYSA-N_conf_1_1.chk"
 ----------------------------------
 ZLSMCQSGRWNEGX-UHFFFAOYSA-N_conf_1
 ----------------------------------
 Charge =  0 Multiplicity = 1

 SCF Done:  E(RB3LYP) =  -687.388089159     A.U. after    1 cycles

      1  O    Isotropic =  -172.8087   Anisotropy =   803.6735

      2  C    Isotropic =     5.0672   Anisotropy =   147.3637

      3  C    Isotropic =    68.7579   Anisotropy =   149.6486

      4  C    Isotropic =    63.9801   Anisotropy =   173.7508

      5  C    Isotropic =    82.6647   Anisotropy =   129.4167

      6  C    Isotropic =    46.5489   Anisotropy =   166.9754

      7  N    Isotropic =   193.0432   Anisotropy =    69.0884

      8  C    Isotropic =    85.0135   Anisotropy =   125.8256

      9  C    Isotropic =    63.3645   Anisotropy =   167.2403

     10  C    Isotropic =    68.7579   Anisotropy =   149.6486

     11  C    Isotropic =    63.9801   Anisotropy =   173.7508

     12  C    Isotropic =    82.6647   Anisotropy =   129.4167

     13  C    Isotropic =    46.5489   Anisotropy =   166.9754

     14  N    Isotropic =   193.0432   Anisotropy =    69.0884

     15  C    Isotropic =    85.0135   Anisotropy =   125.8256

     16  C    Isotropic =    63.3645   Anisotropy =   167.2403

     17  H    Isotropic =    23.8522   Anisotropy =     6.7044

     18  H    Isotropic =    25.0223   Anisotropy =     5.6163

     19  H    Isotropic =    28.0559   Anisotropy =    12.1230

     20  H    Isotropic =    28.0812   Anisotropy =    11.9033

     21  H    Isotropic =    25.1926   Anisotropy =     6.0283

     22  H    Isotropic =    24.1620   Anisotropy =     9.3525

     23  H    Isotropic =    23.8522   Anisotropy =     6.7044

     24  H    Isotropic =    25.0223   Anisotropy =     5.6163

     25  H    Isotropic =    28.0559   Anisotropy =    12.1230

     26  H    Isotropic =    28.0812   Anisotropy =    11.9033

     27  H    Isotropic =    25.1926   Anisotropy =     6.0283

     28  H    Isotropic =    24.1620   Anisotropy =     9.3525

  Exact polarizability: 364.114   0.000 216.498  19.027   0.000  92.029
 Approx polarizability: 394.445   0.000 288.320  26.338   0.000 117.220

                      1                      2                      3
                      A                      A                      A
 Frequencies --     41.2373                57.5614                73.2881
 Red. masses --      4.2245                 4.9361                 3.8489
 Frc consts  --      0.0042                 0.0096                 0.0122
 IR Inten    --      3.8277                 1.5299                 5.0766

                      4                      5                      6
                      A                      A                      A
 Frequencies --    104.4934               154.0530               204.9810
 Red. masses --      6.3920                 4.8269                 5.4457
 Frc consts  --      0.0411                 0.0675                 0.1348
 IR Inten    --     11.4237                 0.0522                 3.3245

                      7                      8                      9
                      A                      A                      A
 Frequencies --    253.1402               267.2734               307.5107
 Red. masses --      5.6395                 5.4773                 5.3225
 Frc consts  --      0.2129                 0.2305                 0.2965
 IR Inten    --      0.1116                 8.3038                 5.9407

                     10                     11                     12
                      A                      A                      A
 Frequencies --    367.7466               372.3923               379.2730
 Red. masses --      2.0496                 1.1634                 1.7775
 Frc consts  --      0.1633                 0.0951                 0.1507
 IR Inten    --     16.7507                22.1818                18.5749

                     13                     14                     15
                      A                      A                      A
 Frequencies --    397.2165               408.7734               420.7651
 Red. masses --      2.3982                 2.7941                 3.0769
 Frc consts  --      0.2229                 0.2751                 0.3210
 IR Inten    --      6.7667                 0.4950                25.0127

                     16                     17                     18
                      A                      A                      A
 Frequencies --    434.6766               458.0919               473.8975
 Red. masses --      3.2111                 1.4006                 1.3352
 Frc consts  --      0.3575                 0.1732                 0.1767
 IR Inten    --      2.8893              1045.1527               452.9777

                     19                     20                     21
                      A                      A                      A
 Frequencies --    517.1916               523.1914               563.9803
 Red. masses --      3.9359                 2.7045                 3.1812
 Frc consts  --      0.6203                 0.4362                 0.5962
 IR Inten    --     25.6783               130.0907                10.9154

                     22                     23                     24
                      A                      A                      A
 Frequencies --    594.8132               647.1499               652.1182
 Red. masses --      5.1537                 6.8199                 6.7193
 Frc consts  --      1.0743                 1.6828                 1.6836
 IR Inten    --     52.2862                 2.5383                 1.7304

                     25                     26                     27
                      A                      A                      A
 Frequencies --    677.5222               692.4356               739.1035
 Red. masses --      5.2592                 3.5693                 4.5808
 Frc consts  --      1.4224                 1.0083                 1.4744
 IR Inten    --      0.3751                28.5457                 0.7743

                     28                     29                     30
                      A                      A                      A
 Frequencies --    780.7962               830.4395               832.9405
 Red. masses --      4.3088                 1.2705                 4.4259
 Frc consts  --      1.5477                 0.5162                 1.8092
 IR Inten    --     78.1120                11.9277                 2.6032

                     31                     32                     33
                      A                      A                      A
 Frequencies --    833.8153               838.8234               854.4398
 Red. masses --      1.2593                 2.0583                 3.3670
 Frc consts  --      0.5158                 0.8533                 1.4483
 IR Inten    --      0.5951                28.3722                 6.1918

                     34                     35                     36
                      A                      A                      A
 Frequencies --    857.7657               939.4501               969.7501
 Red. masses --      2.1395                 5.3598                 1.3589
 Frc consts  --      0.9275                 2.7870                 0.7529
 IR Inten    --     56.0555                98.5786                 0.9148

                     37                     38                     39
                      A                      A                      A
 Frequencies --    974.3764               977.1509               983.6718
 Red. masses --      1.2997                 1.3811                 1.2636
 Frc consts  --      0.7270                 0.7770                 0.7204
 IR Inten    --      0.3075                23.9601                 0.0388

                     40                     41                     42
                      A                      A                      A
 Frequencies --   1023.7361              1027.3499              1081.3655
 Red. masses --      2.8602                 2.4509                 1.4392
 Frc consts  --      1.7661                 1.5241                 0.9915
 IR Inten    --      0.1239                 0.1935                 1.1264

                     43                     44                     45
                      A                      A                      A
 Frequencies --   1082.4843              1155.1657              1157.7202
 Red. masses --      1.4347                 1.1927                 1.1992
 Frc consts  --      0.9905                 0.9377                 0.9470
 IR Inten    --      2.4734                38.5902                11.7811

                     46                     47                     48
                      A                      A                      A
 Frequencies --   1173.2189              1194.1532              1218.1963
 Red. masses --      2.3294                 1.1603                 1.3749
 Frc consts  --      1.8891                 0.9748                 1.2021
 IR Inten    --     58.6894               489.9294                 3.7153

                     49                     50                     51
                      A                      A                      A
 Frequencies --   1306.0244              1336.2535              1337.0399
 Red. masses --      3.3505                 2.9609                 2.2768
 Frc consts  --      3.3671                 3.1150                 2.3981
 IR Inten    --    786.3572               394.0988                53.2562

                     52                     53                     54
                      A                      A                      A
 Frequencies --   1341.4689              1341.8510              1376.7089
 Red. masses --      1.7933                 1.9296                 3.6493
 Frc consts  --      1.9014                 2.0471                 4.0751
 IR Inten    --    185.5113                10.5006                10.8162

                     55                     56                     57
                      A                      A                      A
 Frequencies --   1377.1827              1478.9610              1479.3653
 Red. masses --      3.5533                 3.1304                 3.1187
 Frc consts  --      3.9707                 4.0343                 4.0214
 IR Inten    --      5.0015                 4.2280                51.7038

                     58                     59                     60
                      A                      A                      A
 Frequencies --   1552.6045              1557.5205              1603.9139
 Red. masses --      2.6274                 2.7643                 6.2334
 Frc consts  --      3.7316                 3.9509                 9.4479
 IR Inten    --     20.3098                22.7396                48.8799

                     61                     62                     63
                      A                      A                      A
 Frequencies --   1608.0453              1642.0621              1649.6282
 Red. masses --      5.9531                 5.5399                 2.7588
 Frc consts  --      9.0696                 8.8010                 4.4233
 IR Inten    --     32.5907               497.7782               365.7375

                     64                     65                     66
                      A                      A                      A
 Frequencies --   1659.3357              1662.7924              1688.9453
 Red. masses --      1.2380                 1.4800                 7.7260
 Frc consts  --      2.0084                 2.4109                12.9849
 IR Inten    --    133.8335               832.0532                78.8470

                     67                     68                     69
                      A                      A                      A
 Frequencies --   3181.4381              3181.5071              3183.4595
 Red. masses --      1.0894                 1.0893                 1.0890
 Frc consts  --      6.4964                 6.4965                 6.5027
 IR Inten    --     47.3544                 1.9016                26.5879

                     70                     71                     72
                      A                      A                      A
 Frequencies --   3184.1520              3209.1848              3210.2025
 Red. masses --      1.0894                 1.0924                 1.0926
 Frc consts  --      6.5077                 6.6286                 6.6339
 IR Inten    --     27.2998                27.4646                15.2623

                     73                     74                     75
                      A                      A                      A
 Frequencies --   3210.3000              3214.8207              3579.2630
 Red. masses --      1.0932                 1.0922                 1.0477
 Frc consts  --      6.6378                 6.6507                 7.9078
 IR Inten    --      1.1893                 8.2549               178.5034

                     76                     77                     78
                      A                      A                      A
 Frequencies --   3579.4343              3689.3090              3689.3092
 Red. masses --      1.0477                 1.1006                 1.1006
 Frc consts  --      7.9091                 8.8264                 8.8265
 IR Inten    --     14.1762                26.2126                47.7781

 - Thermochemistry -
 -------------------
 Temperature   298.150 Kelvin.  Pressure   1.00000 Atm.
 Atom     1 has atomic number  8 and mass  15.99491

 Molecular mass:   212.09496 amu.
 Principal axes and moments of inertia in atomic units:
                           1         2         3
     Eigenvalues --  1289.312447298.536128325.35766
           X            1.00000  -0.00000  -0.00061
           Y            0.00000   1.00000   0.00000
           Z            0.00061  -0.00000   1.00000
 This molecule is an asymmetric top.
 Rotational symmetry number  1.
 Warning -- assumption of classical behavior for rotation
           may cause significant error
 Rotational temperatures (Kelvin)      0.06718     0.01187     0.01040
 Rotational constants (GHZ):           1.39977     0.24727     0.21678
 Zero-point vibrational energy     590254.0 (Joules/Mol)
                                  141.07410 (Kcal/Mol)
 Warning -- explicit consideration of  22 degrees of freedom as
           vibrations may cause significant error
 Vibrational temperatures:     59.33    82.82   105.45   150.34   221.65
          (Kelvin)            294.92   364.21   384.55   442.44   529.11
                              535.79   545.69   571.51   588.13   605.39
                              625.40   659.09   681.83   744.12   752.76
                              811.44   855.80   931.10   938.25   974.80
                              996.26  1063.41  1123.39  1194.82  1198.42
                             1199.67  1206.88  1229.35  1234.13  1351.66
                             1395.25  1401.91  1405.90  1415.28  1472.93
                             1478.13  1555.84  1557.45  1662.03  1665.70
                             1688.00  1718.12  1752.71  1879.08  1922.57
                             1923.70  1930.07  1930.62  1980.78  1981.46
                             2127.90  2128.48  2233.85  2240.92  2307.67
                             2313.62  2362.56  2373.45  2387.41  2392.39
                             2430.02  4577.38  4577.48  4580.29  4581.28
                             4617.30  4618.77  4618.91  4625.41  5149.76
                             5150.01  5308.09  5308.09

 Zero-point correction=                           0.224816 (Hartree/Particle)
 Thermal correction to Energy=                    0.238448
 Thermal correction to Enthalpy=                  0.239392
 Thermal correction to Gibbs Free Energy=         0.184258
 Sum of electronic and zero-point Energies=           -687.163273
 Sum of electronic and thermal Energies=              -687.149642
 Sum of electronic and thermal Enthalpies=            -687.148697
 Sum of electronic and thermal Free Energies=         -687.203831

                     E (Thermal)             CV                S
                      KCal/Mol        Cal/Mol-Kelvin    Cal/Mol-Kelvin
 Total                  149.628             54.721            116.038
 Electronic               0.000              0.000              0.000
 Translational            0.889              2.981             41.959
 Rotational               0.889              2.981             32.727
 Vibrational            147.851             48.760             41.352
 Vibration     1          0.594              1.981              5.199
 Vibration     2          0.596              1.974              4.539
 Vibration     3          0.599              1.967              4.063
 Vibration     4          0.605              1.946              3.369
 Vibration     5          0.620              1.898              2.622
 Vibration     6          0.640              1.833              2.088
 Vibration     7          0.664              1.757              1.709
 Vibration     8          0.672              1.733              1.614
 Vibration     9          0.697              1.659              1.376
 Vibration    10          0.740              1.539              1.089
 Vibration    11          0.744              1.529              1.070
 Vibration    12          0.749              1.514              1.042
 Vibration    13          0.764              1.476              0.973
 Vibration    14          0.773              1.451              0.931
 Vibration    15          0.783              1.425              0.889
 Vibration    16          0.795              1.395              0.844
 Vibration    17          0.816              1.343              0.772
 Vibration    18          0.831              1.308              0.727
 Vibration    19          0.872              1.212              0.617
 Vibration    20          0.878              1.199              0.603
 Vibration    21          0.920              1.109              0.516
 Vibration    22          0.953              1.043              0.459

 Optimization completed.
    -- Stationary point found.
 Normal termination of Gaussian 16 at Sun Jul 21 13:29:24 2024.
 Gaussian 16:  ES64L-G16RevA.03 25-Dec-2016

 ----------------------------------------------------------------------
 # TD(NStates=10, Root=1) B3LYP/6-31G** SCRF=(Solvent=water) volume pop
 =NPA density=current Geom=AllCheck Guess=Read
 ----------------------------------------------------------------------

 Structure from the checkpoint file:  "ZLSMCQSGRWNEGX-UHFFFAOYSA-N_conf_1_2.chk"
 ----------------------------------
 ZLSMCQSGRWNEGX-UHFFFAOYSA-N_conf_1
 ----------------------------------
 Charge =  0 Multiplicity = 1

                         Standard orientation:
 ---------------------------------------------------------------------
 Center     Atomic      Atomic             Coordinates (Angstroms)
 Number     Number       Type             X           Y           Z
 ---------------------------------------------------------------------
      1          8           0       -0.000000    2.539030   -0.000000
      2          6           0       -0.000000    1.299655   -0.000000
      3          6           0        1.293964    0.564303   -0.003078
      4          6           0        2.435870    1.215997    0.502111
      5          6           0        3.681804    0.612419    0.488566
      6          6           0        3.847168   -0.677254   -0.064735
      7          7           0        5.075235   -1.305546   -0.035474
      8          6           0        2.714611   -1.323922   -0.601423
      9          6           0        1.467110   -0.715536   -0.562649
     10          6           0       -1.293964    0.564303    0.003078
     11          6           0       -2.435870    1.215997   -0.502111
     12          6           0       -3.681804    0.612419   -0.488565
     13          6           0       -3.847168   -0.677254    0.064735
     14          7           0       -5.075235   -1.305546    0.035475
     15          6           0       -2.714611   -1.323922    0.601423
     16          6           0       -1.467110   -0.715536    0.562648
     17          1           0        2.320918    2.213598    0.913282
     18          1           0        4.543738    1.129235    0.901972
     19          1           0        5.887979   -0.712790    0.061062
     20          1           0        5.213484   -2.066230   -0.686196
     21          1           0        2.825162   -2.305401   -1.054184
     22          1           0        0.622097   -1.230712   -1.006320
     23          1           0       -2.320918    2.213599   -0.913282
     24          1           0       -4.543738    1.129235   -0.901971
     25          1           0       -5.887979   -0.712790   -0.061061
     26          1           0       -5.213484   -2.066231    0.686196
     27          1           0       -2.825162   -2.305402    1.054184
     28          1           0       -0.622097   -1.230712    1.006319
 ---------------------------------------------------------------------

 SCF Done:  E(RB3LYP) =  -687.388089159     A.U. after    1 cycles

 Excitation energies and oscillator strengths:

 Excited State   1:      Singlet-A      3.6601 eV  338.75 nm  f=0.8218  <S**2>=0.000
      56 -> 57         0.70438
 This state for optimization and/or second-order correction.
 Total Energy, E(TD-HF/TD-DFT) =  -687.253584539
 Copying the excited state density for this state as the 1-particle RhoCI density.

 Excited State   2:      Singlet-A      3.7473 eV  330.87 nm  f=0.0269  <S**2>=0.000
      53 -> 57        -0.11743
      54 -> 57         0.54302
      55 -> 57        -0.42471

 Excited State   3:      Singlet-A      4.1460 eV  299.05 nm  f=0.0992  <S**2>=0.000
      54 -> 57         0.41608
      55 -> 57         0.55353

 Excited State   4:      Singlet-A      4.6194 eV  268.40 nm  f=0.0237  <S**2>=0.000
      53 -> 57        -0.45574
      55 -> 59        -0.21792
      56 -> 58         0.47377

 Excited State   5:      Singlet-A      4.6655 eV  265.75 nm  f=0.0052  <S**2>=0.000
      52 -> 57         0.42999
      55 -> 58         0.42707
      56 -> 59        -0.34320

 Excited State   6:      Singlet-A      4.9945 eV  248.24 nm  f=0.0967  <S**2>=0.000
      53 -> 57         0.41441
      54 -> 57         0.10218
      55 -> 59         0.23289
      56 -> 58         0.50752

 Excited State   7:      Singlet-A      5.0068 eV  247.63 nm  f=0.0109  <S**2>=0.000
      52 -> 57        -0.28089
      55 -> 58         0.54989
      56 -> 59         0.33813

 Excited State   8:      Singlet-A      5.1275 eV  241.80 nm  f=0.0573  <S**2>=0.000
      52 -> 57         0.48104
      56 -> 59         0.50121

 Excited State   9:      Singlet-A      5.1531 eV  240.60 nm  f=0.1169  <S**2>=0.000
      53 -> 57        -0.30974
      55 -> 59         0.61231

 Excited State  10:      Singlet-A      5.4149 eV  228.97 nm  f=0.2646  <S**2>=0.000
      55 -> 60         0.69523

 The electronic state is 1-A.
 Alpha  occ. eigenvalues --  -19.12200 -14.34685 -14.34685 -10.26640 -10.23995
 Alpha  occ. eigenvalues --  -10.23995 -10.19712 -10.19712 -10.19397 -10.19397
 Alpha  occ. eigenvalues --  -10.18806 -10.18806 -10.18803 -10.18803 -10.18775
 Alpha  occ. eigenvalues --  -10.18775  -1.01873  -0.92520  -0.92515  -0.84598
 Alpha  occ. eigenvalues --   -0.83922  -0.75574  -0.74816  -0.74654  -0.72789
 Alpha  occ. eigenvalues --   -0.64128  -0.61795  -0.61614  -0.60169  -0.55439
 Alpha  occ. eigenvalues --   -0.52861  -0.52181  -0.51360  -0.51198  -0.48682
 Alpha  occ. eigenvalues --   -0.44552  -0.44033  -0.43971  -0.42909  -0.42189
 Alpha  occ. eigenvalues --   -0.42048  -0.41975  -0.39414  -0.39180  -0.38136
 Alpha  occ. eigenvalues --   -0.38077  -0.36351  -0.33992  -0.33827  -0.31592
 Alpha  occ. eigenvalues --   -0.30571  -0.25787  -0.25602  -0.24504  -0.21156
 Alpha  occ. eigenvalues --   -0.20708
 Alpha virt. eigenvalues --   -0.05083  -0.00809  -0.00068   0.00713   0.06931
 Alpha virt. eigenvalues --    0.09040   0.09378   0.11019   0.11789   0.12780
 Alpha virt. eigenvalues --    0.12906   0.15490   0.17156   0.17436   0.17842

 Mulliken charges:
               1
     1  O   -0.636297
     2  C    0.209064
     3  C    0.072589
     4  C   -0.137459
     5  C   -0.113851
     6  C    0.270588
     7  N   -0.627203
     8  C   -0.119068
     9  C   -0.148043
    10  C    0.072589
    11  C   -0.137459
    12  C   -0.113851
    13  C    0.270588
    14  N   -0.627203
    15  C   -0.119068
    16  C   -0.148043
    17  H    0.093448
    18  H    0.108215
    19  H    0.301236
    20  H    0.300499
    21  H    0.109852
    22  H    0.102813
    23  H    0.093448
    24  H    0.108214
    25  H    0.301236
    26  H    0.300499
    27  H    0.109852
    28  H    0.102813
 Sum of Mulliken charges =  -0.00000

 Dipole moment (field-independent basis, Debye):
    X=              0.0000    Y=             -8.8115    Z=              0.0000  Tot=              8.8115
 Quadrupole moment (field-independent basis, Debye-Ang):
   XX=            -12.1444   YY=            -97.9805   ZZ=            -93.4198
   XY=             -0.0000   XZ=             -8.5797   YZ=              0.0000

 Summary of Natural Population Analysis:

                                       Natural Population
                Natural  -----------------------------------------------
    Atom  No    Charge         Core      Valence    Rydberg      Total
 -----------------------------------------------------------------------
      O    1   -0.72629      1.99982     6.71054    0.01593     8.72629
      C    2    0.33722      1.99921     3.62643    0.03714     5.66278
      C    3   -0.07484      1.99899     4.05934    0.01651     6.07484
      C    4   -0.23239      1.99908     4.21745    0.01585     6.23239
      C    5   -0.25508      1.99905     4.24329    0.01274     6.25508
      C    6    0.16369      1.99901     3.81929    0.01800     5.83631
      N    7   -0.76837      1.99948     5.75751    0.01138     7.76837
      C    8   -0.25412      1.99905     4.24190    0.01317     6.25412
      C    9   -0.24196      1.99908     4.22952    0.01337     6.24196
      C   10   -0.07484      1.99899     4.05934    0.01651     6.07484
      C   11   -0.23239      1.99908     4.21745    0.01585     6.23239
      C   12   -0.25508      1.99905     4.24329    0.01274     6.25508
      C   13    0.16369      1.99901     3.81929    0.01800     5.83631
      N   14   -0.76837      1.99948     5.75751    0.01138     7.76837
      C   15   -0.25412      1.99905     4.24190    0.01317     6.25412
      C   16   -0.24196      1.99908     4.22952    0.01337     6.24196
      H   17    0.25170      0.00000     0.74527    0.00302     0.74830
      H   18    0.24840      0.00000     0.75004    0.00156     0.75160
      H   19    0.42957      0.00000     0.56799    0.00244     0.57043
      H   20    0.42888      0.00000     0.56861    0.00251     0.57112
      H   21    0.24922      0.00000     0.74924    0.00154     0.75078
      H   22    0.24982      0.00000     0.74849    0.00169     0.75018
      H   23    0.25170      0.00000     0.74527    0.00302     0.74830
      H   24    0.24840      0.00000     0.75004    0.00156     0.75160
      H   25    0.42957      0.00000     0.56799    0.00244     0.57043
      H   26    0.42888      0.00000     0.56861    0.00251     0.57112
      H   27    0.24922      0.00000     0.74924    0.00154     0.75078
      H   28    0.24982      0.00000     0.74849    0.00169     0.75018
 =======================================================================
   * Total *   -0.00000     31.98650    79.73288    0.28062   112.00000

 Normal termination of Gaussian 16 at Sun Jul 21 13:46:47 2024.
