 Gaussian 16, Revision A.03,

 -------------------------------------------------------
 # opt=CalcFc B3LYP/6-31G** SCRF=(Solvent=water) scf=xqc
 -------------------------------------------------------

 ----------------------------------
 ZLSMCQSGRWNEGX-UHFFFAOYSA-N_conf_0
 ----------------------------------
 Symbolic Z-matrix:
 Charge =  0 Multiplicity = 1

 SCF Done:  E(RB3LYP) =  -687.382039626     A.U. after   12 cycles
 SCF Done:  E(RB3LYP) =  -687.387714729     A.U. after   11 cycles
 SCF Done:  E(RB3LYP) =  -687.388056788     A.U. after   10 cycles
 SCF Done:  E(RB3LYP) =  -687.388066236     A.U. after    8 cycles
 SCF Done:  E(RB3LYP) =  -687.388067343     A.U. after    8 cycles
 SCF Done:  E(RB3LYP) =  -687.388067414     A.U. after    7 cycles
 Optimization completed.
    -- Stationary point found.
 Normal termination of Gaussian 16 at Sun Jul 21 13:05:14 2024.

 ----------------------------------------------------------------------
 # freq B3LYP/6-31G** SCRF=(Solvent=water) volume NMR pop=NPA density=c
 urrent Geom=AllCheck Guess=Read
 ----------------------------------------------------------------------

 Structure from the checkpoint file:  "ZLSMCQSGRWNEGX-UHFFFAOYSA-N_conf_0_1.chk"
 ----------------------------------
 ZLSMCQSGRWNEGX-UHFFFAOYSA-N_conf_0
 ----------------------------------
 Charge =  0 Multiplicity = 1

 SCF Done:  E(RB3LYP) =  -687.388067414     A.U. after    1 cycles

      1  O    Isotropic =  -173.1952   Anisotropy =   803.9965

      2  C    Isotropic =     5.0494   Anisotropy =   147.4202

      3  C    Isotropic =    68.7654   Anisotropy =   149.6803

      4  C    Isotropic =    64.0789   Anisotropy =   173.6807

      5  C    Isotropic =    82.6298   Anisotropy =   129.3615

      6  C    Isotropic =    46.5541   Anisotropy =   167.1861

      7  N    Isotropic =   193.0445   Anisotropy =    69.7451

      8  C    Isotropic =    84.9816   Anisotropy =   126.1465

      9  C    Isotropic =    63.3567   Anisotropy =   167.1684

     10  C    Isotropic =    68.7779   Anisotropy =   149.5845

     11  C    Isotropic =    63.3833   Anisotropy =   167.1658

     12  C    Isotropic =    85.0192   Anisotropy =   125.8103

     13  C    Isotropic =    46.5555   Anisotropy =   166.9575

     14  N    Isotropic =   193.0492   Anisotropy =    69.0965

     15  C    Isotropic =    82.6551   Anisotropy =   129.4257

     16  C    Isotropic =    63.9686   Anisotropy =   173.7384

     17  H    Isotropic =    23.8587   Anisotropy =     6.7100

     18  H    Isotropic =    25.0246   Anisotropy =     5.6181

     19  H    Isotropic =    28.0568   Anisotropy =    11.9406

     20  H    Isotropic =    28.0723   Anisotropy =    12.0296

     21  H    Isotropic =    25.1844   Anisotropy =     6.0278

     22  H    Isotropic =    24.1575   Anisotropy =     9.2874

     23  H    Isotropic =    24.1905   Anisotropy =     9.3308

     24  H    Isotropic =    25.2024   Anisotropy =     6.0364

     25  H    Isotropic =    28.0588   Anisotropy =    12.1270

     26  H    Isotropic =    28.0863   Anisotropy =    11.8972

     27  H    Isotropic =    25.0218   Anisotropy =     5.6111

     28  H    Isotropic =    23.8491   Anisotropy =     6.6988

  Exact polarizability: 364.098   0.175 216.611  18.956  -0.217  92.056
 Approx polarizability: 395.480  -0.685 287.200  23.608  -1.666 117.332

                      1                      2                      3
                      A                      A                      A
 Frequencies --     41.7344                58.0323                74.2096
 Red. masses --      4.2410                 4.7609                 3.8952
 Frc consts  --      0.0044                 0.0094                 0.0126
 IR Inten    --      4.8661                 2.6135                 1.6018

                      4                      5                      6
                      A                      A                      A
 Frequencies --    105.0949               154.4157               205.4094
 Red. masses --      6.7070                 4.9564                 5.3870
 Frc consts  --      0.0436                 0.0696                 0.1339
 IR Inten    --      7.6825                 1.9171                 2.7963

                      7                      8                      9
                      A                      A                      A
 Frequencies --    253.1495               267.4709               308.6431
 Red. masses --      5.7372                 5.3407                 5.3036
 Frc consts  --      0.2166                 0.2251                 0.2977
 IR Inten    --      0.5525                22.2259                 7.2197

                     10                     11                     12
                      A                      A                      A
 Frequencies --    368.7705               375.5472               383.1958
 Red. masses --      2.1507                 1.6632                 1.1417
 Frc consts  --      0.1723                 0.1382                 0.0988
 IR Inten    --     14.3723                21.3221                20.3071

                     13                     14                     15
                      A                      A                      A
 Frequencies --    396.0704               407.4370               421.0708
 Red. masses --      2.4992                 2.9060                 3.0565
 Frc consts  --      0.2310                 0.2842                 0.3193
 IR Inten    --      4.3067                 9.8601                28.4136

                     16                     17                     18
                      A                      A                      A
 Frequencies --    434.2886               463.4345               472.0086
 Red. masses --      3.2103                 1.3862                 1.3501
 Frc consts  --      0.3567                 0.1754                 0.1772
 IR Inten    --      3.7205              1002.2656               498.2423

                     19                     20                     21
                      A                      A                      A
 Frequencies --    516.4006               521.4638               563.3267
 Red. masses --      3.8100                 2.8056                 3.3194
 Frc consts  --      0.5986                 0.4495                 0.6206
 IR Inten    --    122.2735                63.1872                25.2876

                     22                     23                     24
                      A                      A                      A
 Frequencies --    596.8762               647.1636               652.0797
 Red. masses --      4.8888                 6.8147                 6.7296
 Frc consts  --      1.0262                 1.6816                 1.6859
 IR Inten    --     16.6509                 3.0962                 1.2860

                     25                     26                     27
                      A                      A                      A
 Frequencies --    678.4473               692.9563               738.3173
 Red. masses --      5.1664                 3.5719                 4.6033
 Frc consts  --      1.4011                 1.0106                 1.4785
 IR Inten    --      4.3429                15.7004                 3.3181

                     28                     29                     30
                      A                      A                      A
 Frequencies --    780.3210               830.8690               832.7071
 Red. masses --      4.3335                 1.2871                 3.4000
 Frc consts  --      1.5547                 0.5235                 1.3890
 IR Inten    --     85.1102                10.4721                 6.9746

                     31                     32                     33
                      A                      A                      A
 Frequencies --    834.6352               843.1633               851.2964
 Red. masses --      1.2915                 2.2431                 3.0853
 Frc consts  --      0.5301                 0.9396                 1.3174
 IR Inten    --      0.6010                27.5679                 6.1327

                     34                     35                     36
                      A                      A                      A
 Frequencies --    858.3505               939.4904               969.9664
 Red. masses --      2.2358                 5.3379                 1.3571
 Frc consts  --      0.9706                 2.7759                 0.7523
 IR Inten    --     53.0119                95.2507                 0.7172

                     37                     38                     39
                      A                      A                      A
 Frequencies --    974.4804               977.2102               984.1321
 Red. masses --      1.3009                 1.3868                 1.2635
 Frc consts  --      0.7279                 0.7803                 0.7210
 IR Inten    --      0.4112                25.9314                 0.0419

                     40                     41                     42
                      A                      A                      A
 Frequencies --   1023.9714              1027.7239              1081.8553
 Red. masses --      2.8507                 2.4389                 1.4384
 Frc consts  --      1.7611                 1.5178                 0.9919
 IR Inten    --      0.6230                 0.2880                 1.3258

                     43                     44                     45
                      A                      A                      A
 Frequencies --   1083.9259              1155.2506              1157.8025
 Red. masses --      1.4383                 1.1920                 1.1989
 Frc consts  --      0.9957                 0.9373                 0.9469
 IR Inten    --      2.2065                37.9473                11.2446

                     46                     47                     48
                      A                      A                      A
 Frequencies --   1173.2768              1194.0677              1217.9831
 Red. masses --      2.3226                 1.1595                 1.3759
 Frc consts  --      1.8838                 0.9741                 1.2026
 IR Inten    --     62.2732               476.1891                 3.3797

                     49                     50                     51
                      A                      A                      A
 Frequencies --   1305.9694              1336.2763              1337.0861
 Red. masses --      3.3393                 2.9534                 2.2832
 Frc consts  --      3.3556                 3.1071                 2.4050
 IR Inten    --    778.1998               392.9611                58.9533

                     52                     53                     54
                      A                      A                      A
 Frequencies --   1341.5450              1341.8205              1376.7221
 Red. masses --      1.7964                 1.9262                 3.6534
 Frc consts  --      1.9049                 2.0434                 4.0799
 IR Inten    --    182.9573                12.7975                11.4505

                     55                     56                     57
                      A                      A                      A
 Frequencies --   1377.2106              1478.8865              1479.2904
 Red. masses --      3.5583                 3.1330                 3.1185
 Frc consts  --      3.9764                 4.0372                 4.0207
 IR Inten    --      4.6710                 6.5443                48.3980

                     58                     59                     60
                      A                      A                      A
 Frequencies --   1552.5870              1557.5041              1604.0762
 Red. masses --      2.6292                 2.7664                 6.2357
 Frc consts  --      3.7341                 3.9538                 9.4534
 IR Inten    --     20.7767                23.4647                49.7170

                     61                     62                     63
                      A                      A                      A
 Frequencies --   1608.1889              1642.0176              1649.7807
 Red. masses --      5.9525                 5.5582                 2.8452
 Frc consts  --      9.0704                 8.8296                 4.5627
 IR Inten    --     32.7770               491.3290               400.7820

                     64                     65                     66
                      A                      A                      A
 Frequencies --   1659.8390              1663.1457              1688.8921
 Red. masses --      1.2408                 1.4487                 7.7239
 Frc consts  --      2.0142                 2.3610                12.9805
 IR Inten    --    205.9751               740.9682                72.7220

                     67                     68                     69
                      A                      A                      A
 Frequencies --   3181.5469              3182.5625              3183.6500
 Red. masses --      1.0893                 1.0891                 1.0891
 Frc consts  --      6.4967                 6.4995                 6.5041
 IR Inten    --     25.8243                24.6791                25.9250

                     70                     71                     72
                      A                      A                      A
 Frequencies --   3185.4765              3209.2110              3210.2203
 Red. masses --      1.0891                 1.0924                 1.0926
 Frc consts  --      6.5113                 6.6289                 6.6342
 IR Inten    --     26.9135                27.5961                15.2826

                     73                     74                     75
                      A                      A                      A
 Frequencies --   3210.3454              3214.9159              3579.2942
 Red. masses --      1.0932                 1.0923                 1.0477
 Frc consts  --      6.6383                 6.6514                 7.9082
 IR Inten    --      1.3701                 8.4106               105.1348

                     76                     77                     78
                      A                      A                      A
 Frequencies --   3580.4611              3689.2383              3690.1920
 Red. masses --      1.0477                 1.1006                 1.1006
 Frc consts  --      7.9135                 8.8260                 8.8299
 IR Inten    --     88.4743                36.9444                38.1345

 - Thermochemistry -
 -------------------
 Temperature   298.150 Kelvin.  Pressure   1.00000 Atm.
 Atom     1 has atomic number  8 and mass  15.99491

 Molecular mass:   212.09496 amu.
 Principal axes and moments of inertia in atomic units:
                           1         2         3
     Eigenvalues --  1288.089447301.775078326.27199
           X            1.00000   0.00109   0.00175
           Y           -0.00110   0.99999   0.00414
           Z           -0.00174  -0.00415   0.99999
 This molecule is an asymmetric top.
 Rotational symmetry number  1.
 Warning -- assumption of classical behavior for rotation
           may cause significant error
 Rotational temperatures (Kelvin)      0.06724     0.01186     0.01040
 Rotational constants (GHZ):           1.40110     0.24716     0.21675
 Zero-point vibrational energy     590401.6 (Joules/Mol)
                                  141.10938 (Kcal/Mol)
 Warning -- explicit consideration of  22 degrees of freedom as
           vibrations may cause significant error
 Vibrational temperatures:     60.05    83.50   106.77   151.21   222.17
          (Kelvin)            295.54   364.23   384.83   444.07   530.58
                              540.33   551.33   569.86   586.21   605.83
                              624.84   666.78   679.12   742.99   750.27
                              810.50   858.77   931.12   938.20   976.13
                              997.01  1062.27  1122.71  1195.44  1198.08
                             1200.85  1213.12  1224.83  1234.97  1351.72
                             1395.57  1402.06  1405.99  1415.95  1473.27
                             1478.67  1556.55  1559.53  1662.15  1665.82
                             1688.08  1718.00  1752.41  1879.00  1922.60
                             1923.77  1930.18  1930.58  1980.80  1981.50
                             2127.79  2128.37  2233.83  2240.90  2307.91
                             2313.83  2362.50  2373.67  2388.14  2392.90
                             2429.94  4577.54  4579.00  4580.56  4583.19
                             4617.34  4618.79  4618.97  4625.55  5149.81
                             5151.48  5307.99  5309.36

 Zero-point correction=                           0.224872 (Hartree/Particle)
 Thermal correction to Energy=                    0.238487
 Thermal correction to Enthalpy=                  0.239431
 Thermal correction to Gibbs Free Energy=         0.184357
 Sum of electronic and zero-point Energies=           -687.163195
 Sum of electronic and thermal Energies=              -687.149581
 Sum of electronic and thermal Enthalpies=            -687.148637
 Sum of electronic and thermal Free Energies=         -687.203710

                     E (Thermal)             CV                S
                      KCal/Mol        Cal/Mol-Kelvin    Cal/Mol-Kelvin
 Total                  149.653             54.691            115.912
 Electronic               0.000              0.000              0.000
 Translational            0.889              2.981             41.959
 Rotational               0.889              2.981             32.726
 Vibrational            147.875             48.730             41.227
 Vibration     1          0.594              1.981              5.175
 Vibration     2          0.596              1.974              4.523
 Vibration     3          0.599              1.966              4.038
 Vibration     4          0.605              1.945              3.358
 Vibration     5          0.620              1.898              2.617
 Vibration     6          0.640              1.832              2.084
 Vibration     7          0.664              1.757              1.709
 Vibration     8          0.673              1.733              1.612
 Vibration     9          0.698              1.657              1.370
 Vibration    10          0.741              1.536              1.085
 Vibration    11          0.746              1.522              1.057
 Vibration    12          0.752              1.506              1.027
 Vibration    13          0.763              1.479              0.977
 Vibration    14          0.772              1.454              0.936
 Vibration    15          0.784              1.424              0.888
 Vibration    16          0.795              1.395              0.845
 Vibration    17          0.821              1.331              0.756
 Vibration    18          0.829              1.312              0.732
 Vibration    19          0.871              1.214              0.618
 Vibration    20          0.876              1.202              0.607
 Vibration    21          0.919              1.111              0.517
 Vibration    22          0.955              1.038              0.455

 Optimization completed.
    -- Stationary point found.
 Normal termination of Gaussian 16 at Sun Jul 21 13:18:41 2024.
 Gaussian 16:  ES64L-G16RevA.03 25-Dec-2016

 ----------------------------------------------------------------------
 # TD(NStates=10, Root=1) B3LYP/6-31G** SCRF=(Solvent=water) volume pop
 =NPA density=current Geom=AllCheck Guess=Read
 ----------------------------------------------------------------------

 Structure from the checkpoint file:  "ZLSMCQSGRWNEGX-UHFFFAOYSA-N_conf_0_2.chk"
 ----------------------------------
 ZLSMCQSGRWNEGX-UHFFFAOYSA-N_conf_0
 ----------------------------------
 Charge =  0 Multiplicity = 1

                         Standard orientation:
 ---------------------------------------------------------------------
 Center     Atomic      Atomic             Coordinates (Angstroms)
 Number     Number       Type             X           Y           Z
 ---------------------------------------------------------------------
      1          8           0        0.001396    2.539931   -0.004660
      2          6           0        0.000457    1.300569   -0.000471
      3          6           0       -1.294235    0.566622    0.007533
      4          6           0       -2.435539    1.216432   -0.501407
      5          6           0       -3.681503    0.612875   -0.486681
      6          6           0       -3.847561   -0.674026    0.072555
      7          7           0       -5.096798   -1.255566    0.145726
      8          6           0       -2.715138   -1.319877    0.610381
      9          6           0       -1.467616   -0.711602    0.570737
     10          6           0        1.293879    0.564256   -0.003449
     11          6           0        1.465107   -0.717246   -0.559759
     12          6           0        2.712166   -1.326498   -0.599324
     13          6           0        3.846174   -0.679012   -0.066715
     14          7           0        5.073938   -1.308007   -0.038137
     15          6           0        3.682681    0.612230    0.483426
     16          6           0        2.437132    1.216630    0.497743
     17          1           0       -2.319122    2.210030   -0.921772
     18          1           0       -4.543373    1.127468   -0.902922
     19          1           0       -5.126080   -2.258958    0.262275
     20          1           0       -5.797327   -0.909759   -0.495250
     21          1           0       -2.826646   -2.300211    1.065279
     22          1           0       -0.621668   -1.228082    1.011071
     23          1           0        0.618857   -1.233144   -1.000246
     24          1           0        2.821215   -2.309312   -1.049548
     25          1           0        5.887165   -0.715370    0.055066
     26          1           0        5.210453   -2.070310   -0.687337
     27          1           0        4.545725    1.129650    0.893756
     28          1           0        2.323613    2.215442    0.906368
 ---------------------------------------------------------------------

 SCF Done:  E(RB3LYP) =  -687.388067414     A.U. after    1 cycles

 Excitation energies and oscillator strengths:

 Excited State   1:      Singlet-A      3.6588 eV  338.87 nm  f=0.8234  <S**2>=0.000
      56 -> 57         0.70421
 This state for optimization and/or second-order correction.
 Total Energy, E(TD-HF/TD-DFT) =  -687.253610161
 Copying the excited state density for this state as the 1-particle RhoCI density.

 Excited State   2:      Singlet-A      3.7502 eV  330.61 nm  f=0.0265  <S**2>=0.000
      53 -> 57        -0.11614
      54 -> 57         0.54711
      55 -> 57        -0.41924

 Excited State   3:      Singlet-A      4.1452 eV  299.10 nm  f=0.0980  <S**2>=0.000
      54 -> 57         0.41099
      55 -> 57         0.55762

 Excited State   4:      Singlet-A      4.6187 eV  268.44 nm  f=0.0233  <S**2>=0.000
      53 -> 57         0.45439
      55 -> 59         0.21801
      56 -> 58         0.47529

 Excited State   5:      Singlet-A      4.6658 eV  265.73 nm  f=0.0053  <S**2>=0.000
      52 -> 57         0.43051
      55 -> 58         0.42229
      56 -> 59         0.34842

 Excited State   6:      Singlet-A      4.9943 eV  248.25 nm  f=0.0954  <S**2>=0.000
      53 -> 57        -0.41409
      54 -> 57        -0.10058
      55 -> 59        -0.23354
      56 -> 58         0.50452

 Excited State   7:      Singlet-A      5.0091 eV  247.52 nm  f=0.0122  <S**2>=0.000
      52 -> 57        -0.26563
      55 -> 58         0.55053
      56 -> 59        -0.34466

 Excited State   8:      Singlet-A      5.1250 eV  241.92 nm  f=0.0585  <S**2>=0.000
      52 -> 57        -0.48884
      56 -> 59         0.49225

 Excited State   9:      Singlet-A      5.1538 eV  240.57 nm  f=0.1167  <S**2>=0.000
      53 -> 57        -0.31111
      55 -> 59         0.61154

 Excited State  10:      Singlet-A      5.4180 eV  228.84 nm  f=0.2623  <S**2>=0.000
      55 -> 60         0.68546
      56 -> 60         0.11378

 The electronic state is 1-A.
 Alpha  occ. eigenvalues --  -19.12202 -14.34685 -14.34676 -10.26641 -10.23995
 Alpha  occ. eigenvalues --  -10.23988 -10.19714 -10.19712 -10.19399 -10.19398
 Alpha  occ. eigenvalues --  -10.18807 -10.18806 -10.18805 -10.18802 -10.18777
 Alpha  occ. eigenvalues --  -10.18773  -1.01875  -0.92518  -0.92511  -0.84598
 Alpha  occ. eigenvalues --   -0.83922  -0.75574  -0.74817  -0.74655  -0.72789
 Alpha  occ. eigenvalues --   -0.64126  -0.61798  -0.61616  -0.60166  -0.55437
 Alpha  occ. eigenvalues --   -0.52864  -0.52173  -0.51357  -0.51197  -0.48668
 Alpha  occ. eigenvalues --   -0.44554  -0.44044  -0.43971  -0.42849  -0.42201
 Alpha  occ. eigenvalues --   -0.42069  -0.41972  -0.39732  -0.38948  -0.38421
 Alpha  occ. eigenvalues --   -0.37473  -0.36598  -0.34011  -0.33844  -0.31607
 Alpha  occ. eigenvalues --   -0.30543  -0.25787  -0.25602  -0.24497  -0.21167
 Alpha  occ. eigenvalues --   -0.20700
 Alpha virt. eigenvalues --   -0.05081  -0.00806  -0.00080   0.00712   0.06885
 Alpha virt. eigenvalues --    0.09168   0.09300   0.11014   0.11797   0.12762
 Alpha virt. eigenvalues --    0.12967   0.15558   0.17188   0.17351   0.17738

 Mulliken charges:
               1
     1  O   -0.636186
     2  C    0.208884
     3  C    0.072393
     4  C   -0.137715
     5  C   -0.114300
     6  C    0.269844
     7  N   -0.627654
     8  C   -0.119181
     9  C   -0.148792
    10  C    0.073196
    11  C   -0.147642
    12  C   -0.118705
    13  C    0.270819
    14  N   -0.626440
    15  C   -0.113504
    16  C   -0.137121
    17  H    0.092968
    18  H    0.107833
    19  H    0.300670
    20  H    0.300520
    21  H    0.109343
    22  H    0.102236
    23  H    0.103161
    24  H    0.110290
    25  H    0.301590
    26  H    0.300857
    27  H    0.108721
    28  H    0.093915
 Sum of Mulliken charges =  -0.00000

 Dipole moment (field-independent basis, Debye):
    X=              0.5451    Y=             -9.6670    Z=             -1.8551  Tot=              9.8585
 Quadrupole moment (field-independent basis, Debye-Ang):
   XX=            -16.4385   YY=            -95.3887   ZZ=            -93.7747
   XY=              4.0570   XZ=              1.8168   YZ=              2.7761

 Summary of Natural Population Analysis:

                                       Natural Population
                Natural  -----------------------------------------------
    Atom  No    Charge         Core      Valence    Rydberg      Total
 -----------------------------------------------------------------------
      O    1   -0.72606      1.99982     6.71032    0.01593     8.72606
      C    2    0.33719      1.99921     3.62647    0.03714     5.66281
      C    3   -0.07651      1.99899     4.06101    0.01651     6.07651
      C    4   -0.23239      1.99908     4.21748    0.01583     6.23239
      C    5   -0.25554      1.99905     4.24377    0.01273     6.25554
      C    6    0.16284      1.99901     3.82016    0.01798     5.83716
      N    7   -0.76919      1.99948     5.75830    0.01141     7.76919
      C    8   -0.25470      1.99905     4.24248    0.01317     6.25470
      C    9   -0.24227      1.99908     4.22983    0.01336     6.24227
      C   10   -0.07333      1.99899     4.05783    0.01651     6.07333
      C   11   -0.24181      1.99908     4.22935    0.01337     6.24181
      C   12   -0.25366      1.99905     4.24144    0.01317     6.25366
      C   13    0.16423      1.99901     3.81876    0.01800     5.83577
      N   14   -0.76728      1.99948     5.75643    0.01137     7.76728
      C   15   -0.25457      1.99905     4.24278    0.01274     6.25457
      C   16   -0.23223      1.99908     4.21729    0.01586     6.23223
      H   17    0.25142      0.00000     0.74558    0.00301     0.74858
      H   18    0.24813      0.00000     0.75032    0.00155     0.75187
      H   19    0.42919      0.00000     0.56836    0.00245     0.57081
      H   20    0.42893      0.00000     0.56859    0.00248     0.57107
      H   21    0.24909      0.00000     0.74936    0.00155     0.75091
      H   22    0.24956      0.00000     0.74874    0.00170     0.75044
      H   23    0.25006      0.00000     0.74826    0.00169     0.74994
      H   24    0.24944      0.00000     0.74903    0.00154     0.75056
      H   25    0.42978      0.00000     0.56778    0.00244     0.57022
      H   26    0.42909      0.00000     0.56840    0.00251     0.57091
      H   27    0.24865      0.00000     0.74979    0.00155     0.75135
      H   28    0.25196      0.00000     0.74501    0.00302     0.74804
 =======================================================================
   * Total *   -0.00000     31.98651    79.73290    0.28059   112.00000

 Normal termination of Gaussian 16 at Sun Jul 21 13:33:56 2024.
