 Gaussian 16, Revision A.03,

 -------------------------------------------------------
 # opt=CalcFc B3LYP/6-31G** SCRF=(Solvent=water) scf=xqc
 -------------------------------------------------------

 ----------------------------------
 VOZKAJLKRJDJLL-UHFFFAOYSA-N_conf_1
 ----------------------------------
 Symbolic Z-matrix:
 Charge =  0 Multiplicity = 1

 SCF Done:  E(RB3LYP) =  -382.301591688     A.U. after   12 cycles
 SCF Done:  E(RB3LYP) =  -382.304735721     A.U. after   10 cycles
 SCF Done:  E(RB3LYP) =  -382.304813799     A.U. after    9 cycles
 SCF Done:  E(RB3LYP) =  -382.304814415     A.U. after    7 cycles
 SCF Done:  E(RB3LYP) =  -382.304814458     A.U. after    6 cycles
 Optimization completed.
    -- Stationary point found.
 Normal termination of Gaussian 16 at Fri Jul 19 09:40:13 2024.

 ----------------------------------------------------------------------
 # freq B3LYP/6-31G** SCRF=(Solvent=water) volume NMR pop=NPA density=c
 urrent Geom=AllCheck Guess=Read
 ----------------------------------------------------------------------

 Structure from the checkpoint file:  "VOZKAJLKRJDJLL-UHFFFAOYSA-N_conf_1_1.chk"
 ----------------------------------
 VOZKAJLKRJDJLL-UHFFFAOYSA-N_conf_1
 ----------------------------------
 Charge =  0 Multiplicity = 1

 SCF Done:  E(RB3LYP) =  -382.304814458     A.U. after    1 cycles

      1  C    Isotropic =   174.2183   Anisotropy =    26.4801

      2  C    Isotropic =    84.3843   Anisotropy =   135.6121

      3  C    Isotropic =    65.7894   Anisotropy =   140.8884

      4  C    Isotropic =    93.0063   Anisotropy =   113.6180

      5  C    Isotropic =    50.5018   Anisotropy =   156.2824

      6  N    Isotropic =   201.5147   Anisotropy =    75.4973

      7  C    Isotropic =    96.7018   Anisotropy =    92.4805

      8  C    Isotropic =    50.5445   Anisotropy =   154.2827

      9  N    Isotropic =   201.0108   Anisotropy =    49.9766

     10  H    Isotropic =    29.8486   Anisotropy =     8.5821

     11  H    Isotropic =    29.9794   Anisotropy =     8.0572

     12  H    Isotropic =    29.8462   Anisotropy =     8.8918

     13  H    Isotropic =    24.9410   Anisotropy =     5.7697

     14  H    Isotropic =    25.8468   Anisotropy =     4.6359

     15  H    Isotropic =    28.8728   Anisotropy =    12.2413

     16  H    Isotropic =    28.8536   Anisotropy =    11.9371

     17  H    Isotropic =    25.9476   Anisotropy =     6.9555

     18  H    Isotropic =    28.7705   Anisotropy =    11.0656

     19  H    Isotropic =    28.7900   Anisotropy =    12.4631

  Exact polarizability: 162.937  -3.844 133.019   1.201   0.069  47.211
 Approx polarizability: 188.089  -7.150 160.315  -0.788   0.915  57.741

                      1                      2                      3
                      A                      A                      A
 Frequencies --    137.2459               175.7421               221.8720
 Red. masses --      3.3329                 1.0443                 3.5264
 Frc consts  --      0.0370                 0.0190                 0.1023
 IR Inten    --      3.5573                 1.4943                16.6757

                      4                      5                      6
                      A                      A                      A
 Frequencies --    292.5310               294.2696               312.4648
 Red. masses --      1.7149                 1.1763                 2.3537
 Frc consts  --      0.0865                 0.0600                 0.1354
 IR Inten    --     30.7395                25.5756                14.8549

                      7                      8                      9
                      A                      A                      A
 Frequencies --    321.6308               352.9467               453.6237
 Red. masses --      2.7630                 1.5441                 4.4220
 Frc consts  --      0.1684                 0.1133                 0.5361
 IR Inten    --      3.5533                19.7479                 0.8210

                     10                     11                     12
                      A                      A                      A
 Frequencies --    457.4722               501.8021               570.6446
 Red. masses --      2.7722                 3.4405                 4.8187
 Frc consts  --      0.3418                 0.5104                 0.9245
 IR Inten    --     28.5101                 6.6820                29.1759

                     13                     14                     15
                      A                      A                      A
 Frequencies --    600.6102               627.6848               678.6555
 Red. masses --      1.8455                 1.3987                 2.4796
 Frc consts  --      0.3922                 0.3247                 0.6729
 IR Inten    --     72.8870               832.1379                87.8689

                     16                     17                     18
                      A                      A                      A
 Frequencies --    719.0528               756.7841               765.2999
 Red. masses --      3.0714                 3.0893                 4.5890
 Frc consts  --      0.9356                 1.0424                 1.5835
 IR Inten    --     54.6256                 7.0006                 1.4039

                     19                     20                     21
                      A                      A                      A
 Frequencies --    795.6449               829.4300               932.6405
 Red. masses --      1.4579                 1.5874                 1.2658
 Frc consts  --      0.5438                 0.6434                 0.6487
 IR Inten    --     39.3267                68.0991                 1.2950

                     22                     23                     24
                      A                      A                      A
 Frequencies --    972.4163              1016.5891              1059.9198
 Red. masses --      2.2820                 1.7827                 1.4512
 Frc consts  --      1.2714                 1.0855                 0.9605
 IR Inten    --      2.3739                21.1499                 2.1271

                     25                     26                     27
                      A                      A                      A
 Frequencies --   1095.1105              1135.3020              1170.8970
 Red. masses --      1.4863                 1.3313                 1.2302
 Frc consts  --      1.0502                 1.0110                 0.9937
 IR Inten    --     17.2492                 5.6713                31.7820

                     28                     29                     30
                      A                      A                      A
 Frequencies --   1212.2230              1249.7452              1324.5609
 Red. masses --      3.0043                 1.9075                 1.7139
 Frc consts  --      2.6011                 1.7553                 1.7716
 IR Inten    --     14.9452                90.3608                12.1664

                     31                     32                     33
                      A                      A                      A
 Frequencies --   1353.2356              1373.6496              1423.7562
 Red. masses --      3.0776                 3.8792                 1.2732
 Frc consts  --      3.3205                 4.3126                 1.5206
 IR Inten    --     50.2812                23.6830                 0.7787

                     34                     35                     36
                      A                      A                      A
 Frequencies --   1485.2398              1487.5840              1514.8341
 Red. masses --      1.9167                 1.0523                 1.3872
 Frc consts  --      2.4912                 1.3721                 1.8756
 IR Inten    --     13.0675                 8.0924                29.1876

                     37                     38                     39
                      A                      A                      A
 Frequencies --   1556.2465              1626.5780              1653.7556
 Red. masses --      2.9941                 5.3850                 1.2699
 Frc consts  --      4.2724                 8.3943                 2.0463
 IR Inten    --    161.0659                65.0313                33.4558

                     40                     41                     42
                      A                      A                      A
 Frequencies --   1660.7187              1673.5779              3011.6548
 Red. masses --      1.2015                 3.4856                 1.0430
 Frc consts  --      1.9524                 5.7520                 5.5738
 IR Inten    --     77.4104               352.1662                81.6485

                     43                     44                     45
                      A                      A                      A
 Frequencies --   3057.9189              3119.7111              3162.1239
 Red. masses --      1.0972                 1.0980                 1.0900
 Frc consts  --      6.0451                 6.2962                 6.4213
 IR Inten    --     44.0331                27.9446                46.0597

                     46                     47                     48
                      A                      A                      A
 Frequencies --   3165.0470              3186.7575              3552.3681
 Red. masses --      1.0875                 1.0940                 1.0488
 Frc consts  --      6.4184                 6.5459                 7.7978
 IR Inten    --     16.9697                32.3506                20.7273

                     49                     50                     51
                      A                      A                      A
 Frequencies --   3557.9452              3651.9646              3657.7678
 Red. masses --      1.0487                 1.0975                 1.0976
 Frc consts  --      7.8214                 8.6236                 8.6520
 IR Inten    --     18.5425                17.1682                21.0904

 - Thermochemistry -
 -------------------
 Temperature   298.150 Kelvin.  Pressure   1.00000 Atm.
 Atom     1 has atomic number  6 and mass  12.00000

 Molecular mass:   122.08440 amu.
 Principal axes and moments of inertia in atomic units:
                           1         2         3
     Eigenvalues --   593.899611385.355371964.34984
           X            0.99989   0.01231   0.00782
           Y           -0.01226   0.99991  -0.00562
           Z           -0.00789   0.00552   0.99995
 This molecule is an asymmetric top.
 Rotational symmetry number  1.
 Warning -- assumption of classical behavior for rotation
           may cause significant error
 Rotational temperatures (Kelvin)      0.14584     0.06252     0.04409
 Rotational constants (GHZ):           3.03880     1.30273     0.91875
 Zero-point vibrational energy     424478.4 (Joules/Mol)
                                  101.45277 (Kcal/Mol)
 Warning -- explicit consideration of  13 degrees of freedom as
           vibrations may cause significant error
 Vibrational temperatures:    197.47   252.85   319.22   420.89   423.39
          (Kelvin)            449.57   462.75   507.81   652.66   658.20
                              721.98   821.03   864.14   903.10   976.43
                             1034.56  1088.84  1101.10  1144.76  1193.36
                             1341.86  1399.09  1462.64  1524.99  1575.62
                             1633.45  1684.66  1744.12  1798.10  1905.75
                             1947.00  1976.38  2048.47  2136.93  2140.30
                             2179.51  2239.09  2340.28  2379.39  2389.40
                             2407.91  4333.10  4399.66  4488.57  4549.59
                             4553.80  4585.03  5111.07  5119.09  5254.36
                             5262.71

 Zero-point correction=                           0.161675 (Hartree/Particle)
 Thermal correction to Energy=                    0.170406
 Thermal correction to Enthalpy=                  0.171350
 Thermal correction to Gibbs Free Energy=         0.129113
 Sum of electronic and zero-point Energies=           -382.143139
 Sum of electronic and thermal Energies=              -382.134408
 Sum of electronic and thermal Enthalpies=            -382.133464
 Sum of electronic and thermal Free Energies=         -382.175701

                     E (Thermal)             CV                S
                      KCal/Mol        Cal/Mol-Kelvin    Cal/Mol-Kelvin
 Total                  106.931             34.793             88.896
 Electronic               0.000              0.000              0.000
 Translational            0.889              2.981             40.313
 Rotational               0.889              2.981             28.871
 Vibrational            105.154             28.831             19.712
 Vibration     1          0.614              1.916              2.842
 Vibration     2          0.628              1.872              2.373
 Vibration     3          0.648              1.808              1.944
 Vibration     4          0.688              1.688              1.459
 Vibration     5          0.689              1.684              1.449
 Vibration     6          0.701              1.650              1.349
 Vibration     7          0.707              1.632              1.302
 Vibration     8          0.729              1.569              1.153
 Vibration     9          0.812              1.353              0.785
 Vibration    10          0.816              1.344              0.773
 Vibration    11          0.857              1.246              0.654
 Vibration    12          0.927              1.095              0.503
 Vibration    13          0.959              1.030              0.449

 Optimization completed.
    -- Stationary point found.
 Normal termination of Gaussian 16 at Fri Jul 19 09:43:59 2024.
 Gaussian 16:  ES64L-G16RevA.03 25-Dec-2016

 ----------------------------------------------------------------------
 # TD(NStates=10, Root=1) B3LYP/6-31G** SCRF=(Solvent=water) volume pop
 =NPA density=current Geom=AllCheck Guess=Read
 ----------------------------------------------------------------------

 Structure from the checkpoint file:  "VOZKAJLKRJDJLL-UHFFFAOYSA-N_conf_1_2.chk"
 ----------------------------------
 VOZKAJLKRJDJLL-UHFFFAOYSA-N_conf_1
 ----------------------------------
 Charge =  0 Multiplicity = 1

                         Standard orientation:
 ---------------------------------------------------------------------
 Center     Atomic      Atomic             Coordinates (Angstroms)
 Number     Number       Type             X           Y           Z
 ---------------------------------------------------------------------
      1          6           0       -2.614538   -0.870955    0.017216
      2          6           0       -1.138113   -0.558794    0.000008
      3          6           0       -0.175327   -1.571211   -0.008623
      4          6           0        1.194410   -1.309750   -0.011557
      5          6           0        1.644208    0.021155   -0.007583
      6          7           0        3.012514    0.315689   -0.080610
      7          6           0        0.695335    1.053968   -0.001959
      8          6           0       -0.680286    0.780950    0.003158
      9          7           0       -1.598294    1.835613    0.080468
     10          1           0       -3.119282   -0.418167    0.880398
     11          1           0       -2.782956   -1.950173    0.061614
     12          1           0       -3.131145   -0.499583   -0.879301
     13          1           0       -0.511865   -2.605771   -0.008842
     14          1           0        1.911344   -2.126095   -0.017610
     15          1           0        3.609385   -0.412884    0.291332
     16          1           0        3.265347    1.213745    0.313303
     17          1           0        1.030703    2.089139   -0.002547
     18          1           0       -2.494002    1.651247   -0.353055
     19          1           0       -1.231207    2.727262   -0.228260
 ---------------------------------------------------------------------

 SCF Done:  E(RB3LYP) =  -382.304814458     A.U. after    1 cycles

 Excitation energies and oscillator strengths:

 Excited State   1:      Singlet-A      4.7230 eV  262.51 nm  f=0.1113  <S**2>=0.000
      32 -> 35        -0.26429
      33 -> 34         0.65213
 This state for optimization and/or second-order correction.
 Total Energy, E(TD-HF/TD-DFT) =  -382.131248362
 Copying the excited state density for this state as the 1-particle RhoCI density.

 Excited State   2:      Singlet-A      5.4473 eV  227.60 nm  f=0.1634  <S**2>=0.000
      32 -> 34         0.33732
      33 -> 35         0.61855

 Excited State   3:      Singlet-A      5.7386 eV  216.05 nm  f=0.3260  <S**2>=0.000
      31 -> 34         0.11030
      32 -> 34         0.61074
      33 -> 35        -0.33046

 Excited State   4:      Singlet-A      6.0047 eV  206.48 nm  f=0.9650  <S**2>=0.000
      32 -> 35         0.64856
      33 -> 34         0.25690

 Excited State   5:      Singlet-A      6.6356 eV  186.85 nm  f=0.0110  <S**2>=0.000
      32 -> 36         0.12553
      33 -> 36         0.68877

 Excited State   6:      Singlet-A      6.8274 eV  181.60 nm  f=0.0101  <S**2>=0.000
      32 -> 37        -0.13944
      33 -> 37         0.68123

 Excited State   7:      Singlet-A      7.2493 eV  171.03 nm  f=0.0010  <S**2>=0.000
      32 -> 36         0.62491
      33 -> 36        -0.11471
      33 -> 38         0.26521

 Excited State   8:      Singlet-A      7.3445 eV  168.81 nm  f=0.0085  <S**2>=0.000
      32 -> 36        -0.24351
      32 -> 37        -0.16037
      33 -> 38         0.62638

 Excited State   9:      Singlet-A      7.3896 eV  167.78 nm  f=0.3295  <S**2>=0.000
      31 -> 34         0.66238
      32 -> 37         0.15033

 Excited State  10:      Singlet-A      7.4976 eV  165.36 nm  f=0.0204  <S**2>=0.000
      31 -> 34        -0.13174
      32 -> 37         0.59673
      33 -> 37         0.15149
      33 -> 38         0.15391
      33 -> 39        -0.23259

 The electronic state is 1-A.
 Alpha  occ. eigenvalues --  -14.33335 -14.33165 -10.22043 -10.22038 -10.18004
 Alpha  occ. eigenvalues --  -10.17837 -10.17728 -10.17078 -10.16825  -0.91490
 Alpha  occ. eigenvalues --   -0.90222  -0.81681  -0.74907  -0.71983  -0.66624
 Alpha  occ. eigenvalues --   -0.60415  -0.57760  -0.51642  -0.51262  -0.47570
 Alpha  occ. eigenvalues --   -0.46043  -0.43703  -0.41810  -0.41283  -0.40649
 Alpha  occ. eigenvalues --   -0.37715  -0.37257  -0.34679  -0.33762  -0.32641
 Alpha  occ. eigenvalues --   -0.27874  -0.21128  -0.18828
 Alpha virt. eigenvalues --    0.01466   0.02846   0.08873   0.09751   0.11864
 Alpha virt. eigenvalues --    0.12221   0.14465   0.15764   0.16310   0.17610
 Alpha virt. eigenvalues --    0.19903   0.20700   0.21614   0.24364   0.28039

 Mulliken charges:
               1
     1  C   -0.406685
     2  C    0.128882
     3  C   -0.228218
     4  C   -0.121609
     5  C    0.224360
     6  N   -0.626816
     7  C   -0.206337
     8  C    0.176267
     9  N   -0.646382
    10  H    0.128961
    11  H    0.119808
    12  H    0.126694
    13  H    0.058636
    14  H    0.081144
    15  H    0.288494
    16  H    0.283645
    17  H    0.060347
    18  H    0.281456
    19  H    0.277353
 Sum of Mulliken charges =  -0.00000

 Dipole moment (field-independent basis, Debye):
    X=              0.5523    Y=              1.9487    Z=              0.0402  Tot=              2.0258
 Quadrupole moment (field-independent basis, Debye-Ang):
   XX=            -36.8261   YY=            -47.1580   ZZ=            -58.4290
   XY=             -1.6897   XZ=              6.9329   YZ=             -2.0880

 Summary of Natural Population Analysis:

                                       Natural Population
                Natural  -----------------------------------------------
    Atom  No    Charge         Core      Valence    Rydberg      Total
 -----------------------------------------------------------------------
      C    1   -0.71969      1.99940     4.71268    0.00761     6.71969
      C    2   -0.01796      1.99899     4.00337    0.01560     6.01796
      C    3   -0.36389      1.99909     4.34501    0.01978     6.36389
      C    4   -0.26267      1.99905     4.24649    0.01714     6.26267
      C    5    0.14992      1.99899     3.83180    0.01930     5.85008
      N    6   -0.77312      1.99950     5.76187    0.01175     7.77312
      C    7   -0.43546      1.99901     4.41684    0.01961     6.43546
      C    8    0.13402      1.99894     3.84792    0.01912     5.86598
      N    9   -0.79925      1.99951     5.78752    0.01222     7.79925
      H   10    0.25014      0.00000     0.74788    0.00198     0.74986
      H   11    0.25065      0.00000     0.74803    0.00132     0.74935
      H   12    0.24582      0.00000     0.75230    0.00188     0.75418
      H   13    0.22563      0.00000     0.77277    0.00160     0.77437
      H   14    0.23295      0.00000     0.76527    0.00177     0.76705
      H   15    0.41761      0.00000     0.57969    0.00271     0.58239
      H   16    0.41371      0.00000     0.58207    0.00421     0.58629
      H   17    0.22530      0.00000     0.77296    0.00173     0.77470
      H   18    0.41441      0.00000     0.58317    0.00242     0.58559
      H   19    0.41187      0.00000     0.58430    0.00383     0.58813
 =======================================================================
   * Total *   -0.00000     17.99248    47.84194    0.16558    66.00000

 Normal termination of Gaussian 16 at Fri Jul 19 09:49:15 2024.
