 Gaussian 16, Revision A.03,

 -------------------------------------------------------
 # opt=CalcFc B3LYP/6-31G** SCRF=(Solvent=water) scf=xqc
 -------------------------------------------------------

 ----------------------------------
 VOZKAJLKRJDJLL-UHFFFAOYSA-N_conf_0
 ----------------------------------
 Symbolic Z-matrix:
 Charge =  0 Multiplicity = 1

 SCF Done:  E(RB3LYP) =  -382.301384606     A.U. after   12 cycles
 SCF Done:  E(RB3LYP) =  -382.304724769     A.U. after   10 cycles
 SCF Done:  E(RB3LYP) =  -382.304823566     A.U. after    9 cycles
 SCF Done:  E(RB3LYP) =  -382.304823963     A.U. after    7 cycles
 Optimization completed.
    -- Stationary point found.
 Normal termination of Gaussian 16 at Fri Jul 19 09:39:48 2024.

 ----------------------------------------------------------------------
 # freq B3LYP/6-31G** SCRF=(Solvent=water) volume NMR pop=NPA density=c
 urrent Geom=AllCheck Guess=Read
 ----------------------------------------------------------------------

 Structure from the checkpoint file:  "VOZKAJLKRJDJLL-UHFFFAOYSA-N_conf_0_1.chk"
 ----------------------------------
 VOZKAJLKRJDJLL-UHFFFAOYSA-N_conf_0
 ----------------------------------
 Charge =  0 Multiplicity = 1

 SCF Done:  E(RB3LYP) =  -382.304823963     A.U. after    1 cycles

      1  C    Isotropic =   174.2159   Anisotropy =    26.4617

      2  C    Isotropic =    84.3961   Anisotropy =   135.6700

      3  C    Isotropic =    65.7995   Anisotropy =   140.9154

      4  C    Isotropic =    93.0027   Anisotropy =   113.7880

      5  C    Isotropic =    50.5279   Anisotropy =   156.2830

      6  N    Isotropic =   201.4394   Anisotropy =    75.5074

      7  C    Isotropic =    96.7124   Anisotropy =    91.6580

      8  C    Isotropic =    50.5857   Anisotropy =   154.3033

      9  N    Isotropic =   200.9823   Anisotropy =    49.7521

     10  H    Isotropic =    29.9776   Anisotropy =     8.0608

     11  H    Isotropic =    29.8309   Anisotropy =     8.6201

     12  H    Isotropic =    29.8644   Anisotropy =     8.8550

     13  H    Isotropic =    24.9405   Anisotropy =     5.7689

     14  H    Isotropic =    25.8454   Anisotropy =     4.6408

     15  H    Isotropic =    28.8785   Anisotropy =    12.2267

     16  H    Isotropic =    28.8482   Anisotropy =    11.8777

     17  H    Isotropic =    25.9525   Anisotropy =     6.9404

     18  H    Isotropic =    28.7751   Anisotropy =    11.0298

     19  H    Isotropic =    28.7945   Anisotropy =    12.4647

  Exact polarizability: 162.996  -3.873 133.048   0.067  -0.088  47.216
 Approx polarizability: 188.196  -7.223 160.332   0.683   1.200  57.755

                      1                      2                      3
                      A                      A                      A
 Frequencies --    137.2596               175.7015               222.1708
 Red. masses --      3.3297                 1.0448                 3.5247
 Frc consts  --      0.0370                 0.0190                 0.1025
 IR Inten    --      4.1619                 1.4945                 8.7667

                      4                      5                      6
                      A                      A                      A
 Frequencies --    292.7595               293.7639               313.6302
 Red. masses --      1.4736                 1.3590                 2.1411
 Frc consts  --      0.0744                 0.0691                 0.1241
 IR Inten    --     31.0864                14.8412                 6.5215

                      7                      8                      9
                      A                      A                      A
 Frequencies --    321.6029               352.4073               453.4354
 Red. masses --      3.1139                 1.4977                 4.3810
 Frc consts  --      0.1898                 0.1096                 0.5307
 IR Inten    --      1.0772                43.8929                 1.9428

                     10                     11                     12
                      A                      A                      A
 Frequencies --    457.7654               501.9208               571.2448
 Red. masses --      2.8142                 3.4385                 5.0966
 Frc consts  --      0.3475                 0.5104                 0.9799
 IR Inten    --     24.5289                 5.1621                40.2685

                     13                     14                     15
                      A                      A                      A
 Frequencies --    592.5132               639.4500               676.3160
 Red. masses --      1.6656                 1.4913                 2.3780
 Frc consts  --      0.3445                 0.3593                 0.6409
 IR Inten    --    352.4652               378.5496               272.6002

                     16                     17                     18
                      A                      A                      A
 Frequencies --    717.7070               756.0632               765.4441
 Red. masses --      3.3264                 3.0936                 4.6099
 Frc consts  --      1.0095                 1.0419                 1.5914
 IR Inten    --     27.8397                16.4695                 1.3501

                     19                     20                     21
                      A                      A                      A
 Frequencies --    795.2303               829.9109               932.7681
 Red. masses --      1.4281                 1.6037                 1.2658
 Frc consts  --      0.5321                 0.6508                 0.6489
 IR Inten    --     44.2703                73.0823                 1.4240

                     22                     23                     24
                      A                      A                      A
 Frequencies --    972.1275              1016.5631              1059.8584
 Red. masses --      2.2854                 1.7811                 1.4511
 Frc consts  --      1.2725                 1.0845                 0.9604
 IR Inten    --      1.5002                20.8975                 2.1042

                     25                     26                     27
                      A                      A                      A
 Frequencies --   1095.1692              1135.0759              1170.7988
 Red. masses --      1.4864                 1.3310                 1.2292
 Frc consts  --      1.0504                 1.0104                 0.9928
 IR Inten    --     17.1846                 5.5713                31.3766

                     28                     29                     30
                      A                      A                      A
 Frequencies --   1212.2536              1249.7750              1324.4876
 Red. masses --      3.0088                 1.9076                 1.7092
 Frc consts  --      2.6051                 1.7555                 1.7666
 IR Inten    --     14.4049                89.7901                12.0768

                     31                     32                     33
                      A                      A                      A
 Frequencies --   1353.2309              1373.5969              1423.7531
 Red. masses --      3.0814                 3.9019                 1.2732
 Frc consts  --      3.3246                 4.3376                 1.5206
 IR Inten    --     50.5496                23.6788                 0.7392

                     34                     35                     36
                      A                      A                      A
 Frequencies --   1485.0969              1487.5839              1514.7487
 Red. masses --      1.9311                 1.0492                 1.3852
 Frc consts  --      2.5093                 1.3679                 1.8726
 IR Inten    --     13.2240                 7.9169                29.0515

                     37                     38                     39
                      A                      A                      A
 Frequencies --   1556.1487              1626.6892              1653.6928
 Red. masses --      2.9947                 5.4021                 1.2709
 Frc consts  --      4.2728                 8.4221                 2.0477
 IR Inten    --    160.8534                65.4755                 8.0441

                     40                     41                     42
                      A                      A                      A
 Frequencies --   1660.1287              1673.5974              3011.4973
 Red. masses --      1.2068                 3.4379                 1.0432
 Frc consts  --      1.9596                 5.6734                 5.5742
 IR Inten    --    109.7147               343.9037                81.5867

                     43                     44                     45
                      A                      A                      A
 Frequencies --   3058.0427              3119.7170              3161.9176
 Red. masses --      1.0970                 1.0980                 1.0900
 Frc consts  --      6.0443                 6.2963                 6.4207
 IR Inten    --     44.0502                27.9425                45.6639

                     46                     47                     48
                      A                      A                      A
 Frequencies --   3165.0351              3186.8571              3552.0850
 Red. masses --      1.0875                 1.0940                 1.0488
 Frc consts  --      6.4183                 6.5462                 7.7965
 IR Inten    --     17.6233                32.2567                19.9722

                     49                     50                     51
                      A                      A                      A
 Frequencies --   3557.5886              3651.6648              3657.3798
 Red. masses --      1.0486                 1.0975                 1.0976
 Frc consts  --      7.8197                 8.6222                 8.6502
 IR Inten    --     18.6835                16.7610                20.7587

 - Thermochemistry -
 -------------------
 Temperature   298.150 Kelvin.  Pressure   1.00000 Atm.
 Atom     1 has atomic number  6 and mass  12.00000

 Molecular mass:   122.08440 amu.
 Principal axes and moments of inertia in atomic units:
                           1         2         3
     Eigenvalues --   593.902321385.293531964.27725
           X            0.99992   0.01241  -0.00229
           Y           -0.01242   0.99989  -0.00834
           Z            0.00218   0.00837   0.99996
 This molecule is an asymmetric top.
 Rotational symmetry number  1.
 Warning -- assumption of classical behavior for rotation
           may cause significant error
 Rotational temperatures (Kelvin)      0.14584     0.06252     0.04409
 Rotational constants (GHZ):           3.03878     1.30279     0.91878
 Zero-point vibrational energy     424466.3 (Joules/Mol)
                                  101.44988 (Kcal/Mol)
 Warning -- explicit consideration of  13 degrees of freedom as
           vibrations may cause significant error
 Vibrational temperatures:    197.49   252.80   319.65   421.22   422.66
          (Kelvin)            451.24   462.71   507.04   652.39   658.62
                              722.15   821.89   852.49   920.03   973.07
                             1032.62  1087.81  1101.30  1144.16  1194.06
                             1342.05  1398.67  1462.61  1524.90  1575.70
                             1633.12  1684.52  1744.16  1798.15  1905.64
                             1947.00  1976.30  2048.46  2136.72  2140.30
                             2179.39  2238.95  2340.44  2379.30  2388.55
                             2407.93  4332.87  4399.84  4488.58  4549.29
                             4553.78  4585.18  5110.66  5118.58  5253.93
                             5262.15

 Zero-point correction=                           0.161671 (Hartree/Particle)
 Thermal correction to Energy=                    0.170401
 Thermal correction to Enthalpy=                  0.171345
 Thermal correction to Gibbs Free Energy=         0.129110
 Sum of electronic and zero-point Energies=           -382.143153
 Sum of electronic and thermal Energies=              -382.134423
 Sum of electronic and thermal Enthalpies=            -382.133479
 Sum of electronic and thermal Free Energies=         -382.175714

                     E (Thermal)             CV                S
                      KCal/Mol        Cal/Mol-Kelvin    Cal/Mol-Kelvin
 Total                  106.928             34.792             88.891
 Electronic               0.000              0.000              0.000
 Translational            0.889              2.981             40.313
 Rotational               0.889              2.981             28.870
 Vibrational            105.151             28.830             19.708
 Vibration     1          0.614              1.916              2.842
 Vibration     2          0.628              1.872              2.374
 Vibration     3          0.648              1.807              1.941
 Vibration     4          0.688              1.687              1.458
 Vibration     5          0.689              1.685              1.452
 Vibration     6          0.701              1.648              1.343
 Vibration     7          0.707              1.632              1.302
 Vibration     8          0.729              1.570              1.155
 Vibration     9          0.812              1.353              0.785
 Vibration    10          0.816              1.344              0.773
 Vibration    11          0.857              1.246              0.653
 Vibration    12          0.927              1.093              0.502
 Vibration    13          0.950              1.048              0.463

 Optimization completed.
    -- Stationary point found.
 Normal termination of Gaussian 16 at Fri Jul 19 09:43:35 2024.
 Gaussian 16:  ES64L-G16RevA.03 25-Dec-2016

 ----------------------------------------------------------------------
 # TD(NStates=10, Root=1) B3LYP/6-31G** SCRF=(Solvent=water) volume pop
 =NPA density=current Geom=AllCheck Guess=Read
 ----------------------------------------------------------------------

 Structure from the checkpoint file:  "VOZKAJLKRJDJLL-UHFFFAOYSA-N_conf_0_2.chk"
 ----------------------------------
 VOZKAJLKRJDJLL-UHFFFAOYSA-N_conf_0
 ----------------------------------
 Charge =  0 Multiplicity = 1

                         Standard orientation:
 ---------------------------------------------------------------------
 Center     Atomic      Atomic             Coordinates (Angstroms)
 Number     Number       Type             X           Y           Z
 ---------------------------------------------------------------------
      1          6           0       -2.614758   -0.870579    0.003772
      2          6           0       -1.138178   -0.558737   -0.001109
      3          6           0       -0.175469   -1.571259   -0.009034
      4          6           0        1.194266   -1.309979   -0.004157
      5          6           0        1.644152    0.020850    0.008918
      6          7           0        3.012676    0.313997    0.081513
      7          6           0        0.695496    1.053840    0.010070
      8          6           0       -0.680181    0.780876    0.007319
      9          7           0       -1.598744    1.835583    0.076195
     10          1           0       -2.783767   -1.949871    0.043956
     11          1           0       -3.125772   -0.420015    0.864386
     12          1           0       -3.124660   -0.496612   -0.895535
     13          1           0       -0.512123   -2.605708   -0.021516
     14          1           0        1.911220   -2.126311   -0.008556
     15          1           0        3.608188   -0.407405   -0.306328
     16          1           0        3.263981    1.219339   -0.296399
     17          1           0        1.030948    2.088982    0.015426
     18          1           0       -2.489599    1.652615   -0.367885
     19          1           0       -1.227902    2.727859   -0.226182
 ---------------------------------------------------------------------

 SCF Done:  E(RB3LYP) =  -382.304823963     A.U. after    1 cycles

 Excitation energies and oscillator strengths:

 Excited State   1:      Singlet-A      4.7229 eV  262.52 nm  f=0.1119  <S**2>=0.000
      32 -> 35        -0.26423
      33 -> 34         0.65219
 This state for optimization and/or second-order correction.
 Total Energy, E(TD-HF/TD-DFT) =  -382.131259491
 Copying the excited state density for this state as the 1-particle RhoCI density.

 Excited State   2:      Singlet-A      5.4454 eV  227.69 nm  f=0.1715  <S**2>=0.000
      32 -> 34         0.32498
      33 -> 35         0.62506

 Excited State   3:      Singlet-A      5.7454 eV  215.80 nm  f=0.3204  <S**2>=0.000
      31 -> 34         0.10812
      32 -> 34         0.61750
      33 -> 35        -0.31813

 Excited State   4:      Singlet-A      6.0086 eV  206.34 nm  f=0.9692  <S**2>=0.000
      32 -> 35         0.64893
      33 -> 34         0.25706

 Excited State   5:      Singlet-A      6.6354 eV  186.85 nm  f=0.0071  <S**2>=0.000
      32 -> 36         0.13332
      33 -> 36         0.68927

 Excited State   6:      Singlet-A      6.8182 eV  181.84 nm  f=0.0146  <S**2>=0.000
      32 -> 37        -0.14664
      33 -> 37         0.68347

 Excited State   7:      Singlet-A      7.2624 eV  170.72 nm  f=0.0078  <S**2>=0.000
      32 -> 36         0.63705
      33 -> 36        -0.12319
      33 -> 38         0.24320

 Excited State   8:      Singlet-A      7.3368 eV  168.99 nm  f=0.0004  <S**2>=0.000
      32 -> 36        -0.21861
      32 -> 37        -0.21448
      33 -> 38         0.62687

 Excited State   9:      Singlet-A      7.4057 eV  167.42 nm  f=0.3040  <S**2>=0.000
      31 -> 34         0.65969
      32 -> 37        -0.16547

 Excited State  10:      Singlet-A      7.4934 eV  165.46 nm  f=0.0380  <S**2>=0.000
      31 -> 34         0.16896
      31 -> 35        -0.10361
      32 -> 36        -0.10033
      32 -> 37         0.55056
      33 -> 37         0.14237
      33 -> 38         0.17827
      33 -> 39        -0.28945

 The electronic state is 1-A.
 Alpha  occ. eigenvalues --  -14.33337 -14.33169 -10.22042 -10.22037 -10.18004
 Alpha  occ. eigenvalues --  -10.17836 -10.17727 -10.17080 -10.16825  -0.91492
 Alpha  occ. eigenvalues --   -0.90225  -0.81681  -0.74906  -0.71983  -0.66623
 Alpha  occ. eigenvalues --   -0.60419  -0.57755  -0.51646  -0.51285  -0.47573
 Alpha  occ. eigenvalues --   -0.46047  -0.43581  -0.41852  -0.41304  -0.40684
 Alpha  occ. eigenvalues --   -0.37729  -0.37227  -0.35059  -0.33493  -0.32494
 Alpha  occ. eigenvalues --   -0.27923  -0.21146  -0.18819
 Alpha virt. eigenvalues --    0.01474   0.02841   0.08890   0.09710   0.11880
 Alpha virt. eigenvalues --    0.12314   0.14386   0.15529   0.16315   0.17844
 Alpha virt. eigenvalues --    0.19954   0.20744   0.21478   0.24364   0.28015

 Mulliken charges:
               1
     1  C   -0.406566
     2  C    0.129062
     3  C   -0.228548
     4  C   -0.121674
     5  C    0.225017
     6  N   -0.626984
     7  C   -0.206868
     8  C    0.176481
     9  N   -0.646814
    10  H    0.119706
    11  H    0.128708
    12  H    0.126775
    13  H    0.058452
    14  H    0.080974
    15  H    0.288216
    16  H    0.284468
    17  H    0.060025
    18  H    0.281377
    19  H    0.278193
 Sum of Mulliken charges =  -0.00000

 Dipole moment (field-independent basis, Debye):
    X=              0.5708    Y=              1.9966    Z=             -2.4796  Tot=              3.2343
 Quadrupole moment (field-independent basis, Debye-Ang):
   XX=            -36.8781   YY=            -47.1075   ZZ=            -58.4107
   XY=             -1.5794   XZ=             -1.8801   YZ=             -3.1259

 Summary of Natural Population Analysis:

                                       Natural Population
                Natural  -----------------------------------------------
    Atom  No    Charge         Core      Valence    Rydberg      Total
 -----------------------------------------------------------------------
      C    1   -0.71957      1.99940     4.71256    0.00761     6.71957
      C    2   -0.01812      1.99899     4.00353    0.01560     6.01812
      C    3   -0.36418      1.99909     4.34529    0.01979     6.36418
      C    4   -0.26305      1.99905     4.24686    0.01714     6.26305
      C    5    0.14960      1.99899     3.83210    0.01931     5.85040
      N    6   -0.77236      1.99950     5.76112    0.01175     7.77236
      C    7   -0.43516      1.99901     4.41661    0.01955     6.43516
      C    8    0.13365      1.99894     3.84826    0.01914     5.86635
      N    9   -0.79899      1.99951     5.78726    0.01222     7.79899
      H   10    0.25057      0.00000     0.74810    0.00132     0.74943
      H   11    0.24998      0.00000     0.74804    0.00199     0.75002
      H   12    0.24588      0.00000     0.75226    0.00186     0.75412
      H   13    0.22554      0.00000     0.77286    0.00160     0.77446
      H   14    0.23292      0.00000     0.76531    0.00177     0.76708
      H   15    0.41730      0.00000     0.57994    0.00276     0.58270
      H   16    0.41428      0.00000     0.58170    0.00401     0.58572
      H   17    0.22490      0.00000     0.77325    0.00185     0.77510
      H   18    0.41436      0.00000     0.58323    0.00241     0.58564
      H   19    0.41246      0.00000     0.58392    0.00362     0.58754
 =======================================================================
   * Total *   -0.00000     17.99248    47.84221    0.16531    66.00000

 Normal termination of Gaussian 16 at Fri Jul 19 09:48:47 2024.
