 Gaussian 16, Revision A.03,

 -------------------------------------------------------
 # opt=CalcFc B3LYP/6-31G** SCRF=(Solvent=water) scf=xqc
 -------------------------------------------------------

 ----------------------------------
 AHLPHDHHMVZTML-BYPYZUCNSA-N_conf_0
 ----------------------------------
 Symbolic Z-matrix:
 Charge =  0 Multiplicity = 1

 SCF Done:  E(RB3LYP) =  -457.738697430     A.U. after   12 cycles
 SCF Done:  E(RB3LYP) =  -457.743148340     A.U. after   10 cycles
 SCF Done:  E(RB3LYP) =  -457.743587641     A.U. after   11 cycles
 SCF Done:  E(RB3LYP) =  -457.743623094     A.U. after    9 cycles
 SCF Done:  E(RB3LYP) =  -457.743624844     A.U. after    8 cycles
 SCF Done:  E(RB3LYP) =  -457.743624886     A.U. after    7 cycles
 Optimization completed.
    -- Stationary point found.
 Normal termination of Gaussian 16 at Wed Jul 17 14:35:30 2024.

 ----------------------------------------------------------------------
 # freq B3LYP/6-31G** SCRF=(Solvent=water) volume NMR pop=NPA density=c
 urrent Geom=AllCheck Guess=Read
 ----------------------------------------------------------------------

 Structure from the checkpoint file:  "AHLPHDHHMVZTML-BYPYZUCNSA-N_conf_0_1.chk"
 ----------------------------------
 AHLPHDHHMVZTML-BYPYZUCNSA-N_conf_0
 ----------------------------------
 Charge =  0 Multiplicity = 1

 SCF Done:  E(RB3LYP) =  -457.743624886     A.U. after    1 cycles

      1  N    Isotropic =   227.0271   Anisotropy =    31.6305

      2  C    Isotropic =   132.1849   Anisotropy =    14.6972

      3  C    Isotropic =   151.6264   Anisotropy =    39.7497

      4  C    Isotropic =   160.1518   Anisotropy =    28.5589

      5  C    Isotropic =   146.4695   Anisotropy =    37.6825

      6  N    Isotropic =   233.0652   Anisotropy =    32.6130

      7  C    Isotropic =    24.3961   Anisotropy =   101.1947

      8  O    Isotropic =   149.2887   Anisotropy =   166.3941

      9  O    Isotropic =   -52.6460   Anisotropy =   484.9618

     10  H    Isotropic =    31.1169   Anisotropy =    13.9307

     11  H    Isotropic =    30.9218   Anisotropy =    11.0023

     12  H    Isotropic =    28.5768   Anisotropy =     4.2640

     13  H    Isotropic =    30.2814   Anisotropy =     4.7581

     14  H    Isotropic =    30.2507   Anisotropy =     3.8415

     15  H    Isotropic =    30.4634   Anisotropy =     4.6721

     16  H    Isotropic =    30.4664   Anisotropy =     5.1331

     17  H    Isotropic =    28.8652   Anisotropy =     6.1321

     18  H    Isotropic =    29.3424   Anisotropy =     5.1440

     19  H    Isotropic =    31.0504   Anisotropy =    15.5816

     20  H    Isotropic =    31.5636   Anisotropy =    12.2608

     21  H    Isotropic =    25.4049   Anisotropy =    12.2173

  Exact polarizability:  91.209  -1.887  91.066  -5.158   2.597  87.553
 Approx polarizability:  92.128  -2.557 102.705  -6.517   6.932 103.635

                      1                      2                      3
                      A                      A                      A
 Frequencies --     34.9972                66.5950                73.7149
 Red. masses --      8.4705                 2.3800                 2.7518
 Frc consts  --      0.0061                 0.0062                 0.0088
 IR Inten    --      2.5123                 6.1169                 1.5922

                      4                      5                      6
                      A                      A                      A
 Frequencies --    117.4446               153.3374               220.6293
 Red. masses --      3.5624                 2.5211                 2.8466
 Frc consts  --      0.0290                 0.0349                 0.0816
 IR Inten    --      1.6194                 0.4799                 0.9207

                      7                      8                      9
                      A                      A                      A
 Frequencies --    236.6904               260.4244               304.3306
 Red. masses --      1.3427                 1.1708                 2.3018
 Frc consts  --      0.0443                 0.0468                 0.1256
 IR Inten    --     44.7923                61.6731                38.7288

                     10                     11                     12
                      A                      A                      A
 Frequencies --    316.1658               366.5952               457.4772
 Red. masses --      3.3775                 3.8522                 4.2034
 Frc consts  --      0.1989                 0.3050                 0.5183
 IR Inten    --     22.6783                 2.9111                 9.4910

                     13                     14                     15
                      A                      A                      A
 Frequencies --    550.0892               598.8915               606.7957
 Red. masses --      3.6011                 1.5484                 1.7863
 Frc consts  --      0.6420                 0.3272                 0.3875
 IR Inten    --     21.1647                95.8864                86.4426

                     16                     17                     18
                      A                      A                      A
 Frequencies --    745.4423               780.6825               801.8943
 Red. masses --      1.4143                 2.8357                 2.2329
 Frc consts  --      0.4630                 1.0182                 0.8460
 IR Inten    --     37.6406                56.2178                 8.3228

                     19                     20                     21
                      A                      A                      A
 Frequencies --    872.4000               908.1567               924.6497
 Red. masses --      1.3764                 1.7207                 1.4310
 Frc consts  --      0.6172                 0.8361                 0.7208
 IR Inten    --    128.1932               168.9707               119.5648

                     22                     23                     24
                      A                      A                      A
 Frequencies --    974.0208              1040.6540              1047.3648
 Red. masses --      2.2565                 3.4493                 2.1576
 Frc consts  --      1.2613                 2.2009                 1.3945
 IR Inten    --     24.9804                 3.1692                64.8203

                     25                     26                     27
                      A                      A                      A
 Frequencies --   1078.5698              1095.0450              1108.5506
 Red. masses --      2.2390                 1.8310                 2.0473
 Frc consts  --      1.5346                 1.2936                 1.4823
 IR Inten    --      6.1350                81.2769                49.9879

                     28                     29                     30
                      A                      A                      A
 Frequencies --   1146.1238              1171.8926              1240.7543
 Red. masses --      1.4861                 1.7793                 1.4094
 Frc consts  --      1.1501                 1.4397                 1.2784
 IR Inten    --     86.0213                91.7921                46.3587

                     31                     32                     33
                      A                      A                      A
 Frequencies --   1256.5168              1297.3546              1326.7814
 Red. masses --      1.4194                 1.3534                 1.1628
 Frc consts  --      1.3203                 1.3421                 1.2061
 IR Inten    --      6.2249                12.0179                 1.3797

                     34                     35                     36
                      A                      A                      A
 Frequencies --   1342.0753              1360.0172              1367.9648
 Red. masses --      1.1518                 1.3888                 1.6912
 Frc consts  --      1.2224                 1.5135                 1.8647
 IR Inten    --      2.0573                24.8007                51.1036

                     37                     38                     39
                      A                      A                      A
 Frequencies --   1391.6881              1433.4190              1439.3521
 Red. masses --      1.4302                 1.6068                 1.4884
 Frc consts  --      1.6320                 1.9452                 1.8167
 IR Inten    --      0.2076                42.2058                20.0263

                     40                     41                     42
                      A                      A                      A
 Frequencies --   1487.2635              1502.3058              1526.5230
 Red. masses --      1.0893                 1.0931                 1.0914
 Frc consts  --      1.4197                 1.4535                 1.4985
 IR Inten    --      1.2501                 1.2815                 1.7971

                     43                     44                     45
                      A                      A                      A
 Frequencies --   1648.6648              1657.2504              1814.4351
 Red. masses --      1.0900                 1.0871                10.0226
 Frc consts  --      1.7456                 1.7591                19.4407
 IR Inten    --     42.5594                35.2155               420.9065

                     46                     47                     48
                      A                      A                      A
 Frequencies --   2957.6476              3021.5527              3029.8719
 Red. masses --      1.0721                 1.0647                 1.0603
 Frc consts  --      5.5257                 5.7269                 5.7351
 IR Inten    --    115.0239                17.0438                54.5370

                     49                     50                     51
                      A                      A                      A
 Frequencies --   3050.9709              3064.1525              3081.1837
 Red. masses --      1.0865                 1.0995                 1.0961
 Frc consts  --      5.9585                 6.0820                 6.1310
 IR Inten    --     61.7014                 0.7164                51.8685

                     52                     53                     54
                      A                      A                      A
 Frequencies --   3090.3649              3476.8721              3484.2405
 Red. masses --      1.0944                 1.0510                 1.0501
 Frc consts  --      6.1583                 7.4858                 7.5107
 IR Inten    --    103.7128                 1.6420                 0.2639

                     55                     56                     57
                      A                      A                      A
 Frequencies --   3554.6911              3566.7980              3740.3257
 Red. masses --      1.0912                 1.0922                 1.0646
 Frc consts  --      8.1239                 8.1869                 8.7754
 IR Inten    --      0.1030                 1.8385                96.1579

 - Thermochemistry -
 -------------------
 Temperature   298.150 Kelvin.  Pressure   1.00000 Atm.
 Atom     1 has atomic number  7 and mass  14.00307

 Molecular mass:   132.08988 amu.
 Principal axes and moments of inertia in atomic units:
                           1         2         3
     Eigenvalues --   693.385772330.100192671.09368
           X            0.99996  -0.00762  -0.00353
           Y            0.00757   0.99987  -0.01415
           Z            0.00364   0.01412   0.99989
 This molecule is an asymmetric top.
 Rotational symmetry number  1.
 Warning -- assumption of classical behavior for rotation
           may cause significant error
 Rotational temperatures (Kelvin)      0.12491     0.03717     0.03243
 Rotational constants (GHZ):           2.60280     0.77453     0.67566
 Zero-point vibrational energy     480125.2 (Joules/Mol)
                                  114.75267 (Kcal/Mol)
 Warning -- explicit consideration of  15 degrees of freedom as
           vibrations may cause significant error
 Vibrational temperatures:     50.35    95.82   106.06   168.98   220.62
          (Kelvin)            317.44   340.54   374.69   437.86   454.89
                              527.45   658.21   791.46   861.67   873.04
                             1072.53  1123.23  1153.75  1255.19  1306.64
                             1330.36  1401.40  1497.27  1506.92  1551.82
                             1575.53  1594.96  1649.02  1686.09  1785.17
                             1807.85  1866.60  1908.94  1930.95  1956.76
                             1968.20  2002.33  2062.37  2070.91  2139.84
                             2161.48  2196.33  2372.06  2384.41  2610.57
                             4255.40  4347.34  4359.31  4389.67  4408.63
                             4433.14  4446.35  5002.44  5013.04  5114.41
                             5131.83  5381.49

 Zero-point correction=                           0.182870 (Hartree/Particle)
 Thermal correction to Energy=                    0.193679
 Thermal correction to Enthalpy=                  0.194624
 Thermal correction to Gibbs Free Energy=         0.145497
 Sum of electronic and zero-point Energies=           -457.560755
 Sum of electronic and thermal Energies=              -457.549945
 Sum of electronic and thermal Enthalpies=            -457.549001
 Sum of electronic and thermal Free Energies=         -457.598128

                     E (Thermal)             CV                S
                      KCal/Mol        Cal/Mol-Kelvin    Cal/Mol-Kelvin
 Total                  121.536             38.033            103.396
 Electronic               0.000              0.000              0.000
 Translational            0.889              2.981             40.548
 Rotational               0.889              2.981             29.846
 Vibrational            119.758             32.071             33.002
 Vibration     1          0.594              1.982              5.524
 Vibration     2          0.598              1.970              4.252
 Vibration     3          0.599              1.966              4.052
 Vibration     4          0.608              1.935              3.142
 Vibration     5          0.619              1.899              2.630
 Vibration     6          0.647              1.810              1.954
 Vibration     7          0.656              1.785              1.828
 Vibration     8          0.668              1.745              1.659
 Vibration     9          0.695              1.665              1.393
 Vibration    10          0.703              1.643              1.330
 Vibration    11          0.740              1.541              1.094
 Vibration    12          0.816              1.344              0.773
 Vibration    13          0.905              1.139              0.544
 Vibration    14          0.957              1.034              0.452
 Vibration    15          0.966              1.017              0.438

 Optimization completed.
    -- Stationary point found.
 Normal termination of Gaussian 16 at Wed Jul 17 14:39:46 2024.
 Gaussian 16:  ES64L-G16RevA.03 25-Dec-2016

 ----------------------------------------------------------------------
 # TD(NStates=10, Root=1) B3LYP/6-31G** SCRF=(Solvent=water) volume pop
 =NPA density=current Geom=AllCheck Guess=Read
 ----------------------------------------------------------------------

 Structure from the checkpoint file:  "AHLPHDHHMVZTML-BYPYZUCNSA-N_conf_0_2.chk"
 ----------------------------------
 AHLPHDHHMVZTML-BYPYZUCNSA-N_conf_0
 ----------------------------------
 Charge =  0 Multiplicity = 1

                         Standard orientation:
 ---------------------------------------------------------------------
 Center     Atomic      Atomic             Coordinates (Angstroms)
 Number     Number       Type             X           Y           Z
 ---------------------------------------------------------------------
      1          7           0       -2.200799    1.616506   -0.229490
      2          6           0       -1.146894    0.633037   -0.515684
      3          6           0        0.223925    0.944622    0.133790
      4          6           0        1.350833   -0.025011   -0.242858
      5          6           0        2.698760    0.375274    0.361110
      6          7           0        3.739567   -0.601533    0.004618
      7          6           0       -1.626674   -0.750669   -0.098496
      8          8           0       -2.135670   -0.752495    1.151619
      9          8           0       -1.538927   -1.757289   -0.772909
     10          1           0       -1.890534    2.525637   -0.567685
     11          1           0       -2.296621    1.713262    0.780127
     12          1           0       -1.018126    0.582420   -1.601400
     13          1           0        0.495865    1.962391   -0.174339
     14          1           0        0.095792    0.969535    1.223843
     15          1           0        1.110408   -1.043367    0.084505
     16          1           0        1.445051   -0.065445   -1.337360
     17          1           0        2.938717    1.407339    0.051634
     18          1           0        2.614457    0.391481    1.455090
     19          1           0        4.616671   -0.325253    0.442295
     20          1           0        3.914443   -0.542152   -0.997849
     21          1           0       -2.400422   -1.665914    1.358389
 ---------------------------------------------------------------------

 SCF Done:  E(RB3LYP) =  -457.743624886     A.U. after    1 cycles

 Excitation energies and oscillator strengths:

 Excited State   1:      Singlet-A      5.4802 eV  226.24 nm  f=0.0078  <S**2>=0.000
      34 -> 37         0.30090
      35 -> 37         0.59197
      36 -> 37        -0.23663
 This state for optimization and/or second-order correction.
 Total Energy, E(TD-HF/TD-DFT) =  -457.542231901
 Copying the excited state density for this state as the 1-particle RhoCI density.

 Excited State   2:      Singlet-A      5.9651 eV  207.85 nm  f=0.0028  <S**2>=0.000
      34 -> 37         0.32766
      36 -> 37         0.62028

 Excited State   3:      Singlet-A      6.1041 eV  203.12 nm  f=0.0008  <S**2>=0.000
      34 -> 37         0.54342
      35 -> 37        -0.37659
      36 -> 37        -0.24267

 Excited State   4:      Singlet-A      7.4870 eV  165.60 nm  f=0.0120  <S**2>=0.000
      35 -> 38         0.17424
      35 -> 39         0.15956
      36 -> 38        -0.18662
      36 -> 39         0.63001

 Excited State   5:      Singlet-A      7.5063 eV  165.17 nm  f=0.0124  <S**2>=0.000
      35 -> 38         0.57836
      35 -> 40        -0.13565
      36 -> 38        -0.26351
      36 -> 39        -0.24272

 Excited State   6:      Singlet-A      7.8838 eV  157.27 nm  f=0.0011  <S**2>=0.000
      35 -> 38         0.30682
      36 -> 38         0.61907
      36 -> 42        -0.10008

 Excited State   7:      Singlet-A      8.1098 eV  152.88 nm  f=0.0287  <S**2>=0.000
      32 -> 37         0.31483
      33 -> 37         0.54614
      34 -> 38         0.22211
      35 -> 40         0.13170

 Excited State   8:      Singlet-A      8.2710 eV  149.90 nm  f=0.0451  <S**2>=0.000
      30 -> 37        -0.11566
      32 -> 37         0.48390
      34 -> 38        -0.31978
      35 -> 40        -0.31216
      36 -> 40         0.13778

 Excited State   9:      Singlet-A      8.4509 eV  146.71 nm  f=0.0109  <S**2>=0.000
      35 -> 39         0.64035
      35 -> 41        -0.12843
      35 -> 42         0.11176
      36 -> 39        -0.16235

 Excited State  10:      Singlet-A      8.4682 eV  146.41 nm  f=0.0750  <S**2>=0.000
      28 -> 37         0.11386
      30 -> 37        -0.15700
      31 -> 37         0.49732
      32 -> 37         0.24117
      33 -> 37        -0.13308
      35 -> 40         0.28478
      36 -> 40        -0.17567

 The electronic state is 1-A.
 Alpha  occ. eigenvalues --  -19.20077 -19.14521 -14.32059 -14.30972 -10.32366
 Alpha  occ. eigenvalues --  -10.22871 -10.20378 -10.18780 -10.18046  -1.10941
 Alpha  occ. eigenvalues --   -1.01867  -0.89373  -0.87474  -0.77999  -0.71276
 Alpha  occ. eigenvalues --   -0.65309  -0.60005  -0.58505  -0.50839  -0.49058
 Alpha  occ. eigenvalues --   -0.47982  -0.46852  -0.46404  -0.44788  -0.43471
 Alpha  occ. eigenvalues --   -0.41046  -0.39727  -0.38717  -0.36562  -0.35253
 Alpha  occ. eigenvalues --   -0.34404  -0.33282  -0.32185  -0.28227  -0.24503
 Alpha  occ. eigenvalues --   -0.23683
 Alpha virt. eigenvalues --    0.00352   0.07213   0.08884   0.10436   0.11813
 Alpha virt. eigenvalues --    0.12167   0.14677   0.15357   0.16797   0.17801
 Alpha virt. eigenvalues --    0.19093   0.19532   0.20343   0.21568   0.22379

 Mulliken charges:
               1
     1  N   -0.447770
     2  C   -0.043347
     3  C   -0.175971
     4  C   -0.170985
     5  C   -0.053348
     6  N   -0.642597
     7  C    0.391064
     8  O   -0.545235
     9  O   -0.521756
    10  H    0.308022
    11  H    0.312951
    12  H    0.131906
    13  H    0.101211
    14  H    0.116290
    15  H    0.114111
    16  H    0.100416
    17  H    0.087986
    18  H    0.106516
    19  H    0.255511
    20  H    0.252332
    21  H    0.322694
 Sum of Mulliken charges =  -0.00000

 Dipole moment (field-independent basis, Debye):
    X=              1.6877    Y=              7.1455    Z=              1.1195  Tot=              7.4269
 Quadrupole moment (field-independent basis, Debye-Ang):
   XX=            -49.4093   YY=            -52.0962   ZZ=            -53.1977
   XY=             -2.3895   XZ=             -6.0779   YZ=             -4.8683

 Summary of Natural Population Analysis:

                                       Natural Population
                Natural  -----------------------------------------------
    Atom  No    Charge         Core      Valence    Rydberg      Total
 -----------------------------------------------------------------------
      N    1   -0.61176      1.99946     5.60124    0.01106     7.61176
      C    2   -0.15518      1.99912     4.13630    0.01976     6.15518
      C    3   -0.46261      1.99925     4.45072    0.01264     6.46261
      C    4   -0.47499      1.99931     4.46309    0.01259     6.47499
      C    5   -0.25640      1.99935     4.24377    0.01329     6.25640
      N    6   -0.92384      1.99968     5.90947    0.01470     7.92384
      C    7    0.46006      1.99945     3.49225    0.04824     5.53994
      O    8   -0.76413      1.99978     6.75334    0.01100     8.76413
      O    9   -0.58480      1.99981     6.56549    0.01950     8.58480
      H   10    0.41419      0.00000     0.58216    0.00365     0.58581
      H   11    0.41717      0.00000     0.58001    0.00282     0.58283
      H   12    0.26427      0.00000     0.73250    0.00323     0.73573
      H   13    0.23611      0.00000     0.76023    0.00366     0.76389
      H   14    0.24600      0.00000     0.75152    0.00248     0.75400
      H   15    0.24726      0.00000     0.74988    0.00285     0.75274
      H   16    0.23349      0.00000     0.76400    0.00251     0.76651
      H   17    0.20586      0.00000     0.79132    0.00282     0.79414
      H   18    0.22713      0.00000     0.77072    0.00214     0.77287
      H   19    0.39327      0.00000     0.60416    0.00258     0.60673
      H   20    0.38491      0.00000     0.61220    0.00289     0.61509
      H   21    0.50399      0.00000     0.49067    0.00534     0.49601
 =======================================================================
   * Total *   -0.00000     17.99521    53.80505    0.19974    72.00000

 Normal termination of Gaussian 16 at Wed Jul 17 14:45:42 2024.
