 Gaussian 16, Revision A.03,

 -------------------------------------------------------
 # opt=CalcFc B3LYP/6-31G** SCRF=(Solvent=water) scf=xqc
 -------------------------------------------------------

 ----------------------------------
 AHLPHDHHMVZTML-BYPYZUCNSA-N_conf_1
 ----------------------------------
 Symbolic Z-matrix:
 Charge =  0 Multiplicity = 1

 SCF Done:  E(RB3LYP) =  -457.742976315     A.U. after   12 cycles
 SCF Done:  E(RB3LYP) =  -457.745603268     A.U. after   10 cycles
 SCF Done:  E(RB3LYP) =  -457.745889534     A.U. after   12 cycles
 SCF Done:  E(RB3LYP) =  -457.745905550     A.U. after    9 cycles
 SCF Done:  E(RB3LYP) =  -457.745911191     A.U. after    9 cycles
 SCF Done:  E(RB3LYP) =  -457.745912470     A.U. after    9 cycles
 Optimization completed.
    -- Stationary point found.
 Normal termination of Gaussian 16 at Wed Jul 17 14:35:51 2024.

 ----------------------------------------------------------------------
 # freq B3LYP/6-31G** SCRF=(Solvent=water) volume NMR pop=NPA density=c
 urrent Geom=AllCheck Guess=Read
 ----------------------------------------------------------------------

 Structure from the checkpoint file:  "AHLPHDHHMVZTML-BYPYZUCNSA-N_conf_1_1.chk"
 ----------------------------------
 AHLPHDHHMVZTML-BYPYZUCNSA-N_conf_1
 ----------------------------------
 Charge =  0 Multiplicity = 1

 SCF Done:  E(RB3LYP) =  -457.745912470     A.U. after    1 cycles

      1  N    Isotropic =   233.6339   Anisotropy =    30.1957

      2  C    Isotropic =   137.4283   Anisotropy =    30.5107

      3  C    Isotropic =   157.3244   Anisotropy =    25.1089

      4  C    Isotropic =   164.0797   Anisotropy =    24.5591

      5  C    Isotropic =   146.4234   Anisotropy =    37.6604

      6  N    Isotropic =   233.1825   Anisotropy =    32.7260

      7  C    Isotropic =    20.0881   Anisotropy =   100.2564

      8  O    Isotropic =   147.9254   Anisotropy =   173.9117

      9  O    Isotropic =   -45.5054   Anisotropy =   533.4508

     10  H    Isotropic =    30.8576   Anisotropy =    15.8373

     11  H    Isotropic =    30.4648   Anisotropy =    10.9708

     12  H    Isotropic =    28.2801   Anisotropy =     6.2891

     13  H    Isotropic =    30.0475   Anisotropy =     6.6500

     14  H    Isotropic =    30.0217   Anisotropy =     6.3983

     15  H    Isotropic =    30.3330   Anisotropy =     4.2147

     16  H    Isotropic =    30.6757   Anisotropy =     4.8213

     17  H    Isotropic =    29.3381   Anisotropy =     5.3680

     18  H    Isotropic =    28.8839   Anisotropy =     6.1925

     19  H    Isotropic =    31.5455   Anisotropy =    12.1683

     20  H    Isotropic =    31.0247   Anisotropy =    15.7354

     21  H    Isotropic =    25.3192   Anisotropy =    12.6065

  Exact polarizability:  91.190  -0.869  88.134  -0.233  -4.167  90.019
 Approx polarizability:  92.003  -1.273  97.632  -0.643  -5.929 109.034

                      1                      2                      3
                      A                      A                      A
 Frequencies --     43.2912                65.1799                74.6989
 Red. masses --      7.6466                 5.2419                 1.7699
 Frc consts  --      0.0084                 0.0131                 0.0058
 IR Inten    --      4.2002                 1.0170                 8.0885

                      4                      5                      6
                      A                      A                      A
 Frequencies --    128.7394               145.7687               219.9015
 Red. masses --      3.3049                 2.8450                 1.2625
 Frc consts  --      0.0323                 0.0356                 0.0360
 IR Inten    --      1.0183                 2.0961                72.7728

                      7                      8                      9
                      A                      A                      A
 Frequencies --    232.9617               259.8734               280.8691
 Red. masses --      2.3351                 1.2257                 2.9250
 Frc consts  --      0.0747                 0.0488                 0.1360
 IR Inten    --     14.0692                60.2170                 6.4777

                     10                     11                     12
                      A                      A                      A
 Frequencies --    344.0802               418.0647               445.3062
 Red. masses --      2.7659                 3.9058                 3.6215
 Frc consts  --      0.1929                 0.4022                 0.4231
 IR Inten    --     23.2808                21.3368                22.6986

                     13                     14                     15
                      A                      A                      A
 Frequencies --    527.8551               604.3948               649.2550
 Red. masses --      2.6511                 1.6914                 2.4493
 Frc consts  --      0.4352                 0.3640                 0.6083
 IR Inten    --     23.0967               112.8579                51.6305

                     16                     17                     18
                      A                      A                      A
 Frequencies --    752.8430               763.1599               814.1870
 Red. masses --      1.1702                 3.9943                 2.1688
 Frc consts  --      0.3908                 1.3706                 0.8471
 IR Inten    --     15.8888                41.1375                17.3670

                     19                     20                     21
                      A                      A                      A
 Frequencies --    856.9197               914.2036               922.4443
 Red. masses --      1.5252                 1.4757                 1.8606
 Frc consts  --      0.6599                 0.7267                 0.9328
 IR Inten    --     89.5292                97.6437               124.3611

                     22                     23                     24
                      A                      A                      A
 Frequencies --    962.9502               991.5853              1040.3166
 Red. masses --      1.9103                 2.2360                 2.3736
 Frc consts  --      1.0437                 1.2953                 1.5135
 IR Inten    --    140.3966                27.2262                 0.7839

                     25                     26                     27
                      A                      A                      A
 Frequencies --   1082.8329              1125.9766              1141.3559
 Red. masses --      2.5758                 1.6323                 2.3506
 Frc consts  --      1.7794                 1.2193                 1.8042
 IR Inten    --     15.8005                 0.8024               230.2649

                     28                     29                     30
                      A                      A                      A
 Frequencies --   1152.5277              1168.9315              1235.8352
 Red. masses --      1.2738                 1.8035                 1.6531
 Frc consts  --      0.9969                 1.4519                 1.4876
 IR Inten    --     72.6746                95.1399                 8.0369

                     31                     32                     33
                      A                      A                      A
 Frequencies --   1259.2742              1296.7707              1321.2914
 Red. masses --      1.4507                 1.3934                 1.2868
 Frc consts  --      1.3554                 1.3806                 1.3236
 IR Inten    --      7.7220                 8.6128                 1.3948

                     34                     35                     36
                      A                      A                      A
 Frequencies --   1335.5044              1344.4661              1369.5098
 Red. masses --      1.2038                 1.2147                 1.6198
 Frc consts  --      1.2650                 1.2936                 1.7899
 IR Inten    --      9.6613                 2.1486                27.7179

                     37                     38                     39
                      A                      A                      A
 Frequencies --   1405.8257              1431.1778              1439.5927
 Red. masses --      1.4161                 1.5528                 1.5069
 Frc consts  --      1.6489                 1.8740                 1.8400
 IR Inten    --      3.1466                17.5500                18.3690

                     40                     41                     42
                      A                      A                      A
 Frequencies --   1483.9750              1501.7117              1526.8390
 Red. masses --      1.0905                 1.0886                 1.0926
 Frc consts  --      1.4149                 1.4464                 1.5007
 IR Inten    --      3.0249                 2.9122                 1.7212

                     43                     44                     45
                      A                      A                      A
 Frequencies --   1656.9722              1670.2287              1805.3270
 Red. masses --      1.0872                 1.0882                10.4187
 Frc consts  --      1.7587                 1.7885                20.0066
 IR Inten    --     35.0153                43.9320               409.9530

                     46                     47                     48
                      A                      A                      A
 Frequencies --   2957.5776              3027.5295              3047.9191
 Red. masses --      1.0721                 1.0607                 1.0760
 Frc consts  --      5.5251                 5.7284                 5.8895
 IR Inten    --    115.6051                27.6903                12.4415

                     49                     50                     51
                      A                      A                      A
 Frequencies --   3051.0670              3071.3515              3073.1260
 Red. masses --      1.0722                 1.1024                 1.0841
 Frc consts  --      5.8809                 6.1270                 6.0324
 IR Inten    --     71.5980                43.2452                35.8976

                     52                     53                     54
                      A                      A                      A
 Frequencies --   3098.2562              3476.6317              3490.9957
 Red. masses --      1.1053                 1.0511                 1.0507
 Frc consts  --      6.2510                 7.4852                 7.5446
 IR Inten    --     84.2240                 1.4878                 1.4834

                     55                     56                     57
                      A                      A                      A
 Frequencies --   3554.5842              3563.6160              3733.6627
 Red. masses --      1.0912                 1.0909                 1.0646
 Frc consts  --      8.1232                 8.1627                 8.7436
 IR Inten    --      0.0758                 2.5137                82.0796

 - Thermochemistry -
 -------------------
 Temperature   298.150 Kelvin.  Pressure   1.00000 Atm.
 Atom     1 has atomic number  7 and mass  14.00307

 Molecular mass:   132.08988 amu.
 Principal axes and moments of inertia in atomic units:
                           1         2         3
     Eigenvalues --   732.285152273.697352449.83926
           X            0.99996   0.00870   0.00234
           Y           -0.00862   0.99944  -0.03241
           Z           -0.00262   0.03239   0.99947
 This molecule is an asymmetric top.
 Rotational symmetry number  1.
 Warning -- assumption of classical behavior for rotation
           may cause significant error
 Rotational temperatures (Kelvin)      0.11828     0.03809     0.03535
 Rotational constants (GHZ):           2.46453     0.79375     0.73668
 Zero-point vibrational energy     480666.1 (Joules/Mol)
                                  114.88195 (Kcal/Mol)
 Warning -- explicit consideration of  14 degrees of freedom as
           vibrations may cause significant error
 Vibrational temperatures:     62.29    93.78   107.48   185.23   209.73
          (Kelvin)            316.39   335.18   373.90   404.11   495.05
                              601.50   640.70   759.47   869.59   934.13
                             1083.17  1098.02  1171.43  1232.92  1315.34
                             1327.19  1385.47  1426.67  1496.78  1557.96
                             1620.03  1642.16  1658.23  1681.83  1778.09
                             1811.81  1865.76  1901.04  1921.49  1934.39
                             1970.42  2022.67  2059.15  2071.25  2135.11
                             2160.63  2196.78  2384.01  2403.09  2597.46
                             4255.29  4355.94  4385.28  4389.80  4418.99
                             4421.54  4457.70  5002.10  5022.76  5114.25
                             5127.25  5371.91

 Zero-point correction=                           0.183076 (Hartree/Particle)
 Thermal correction to Energy=                    0.193821
 Thermal correction to Enthalpy=                  0.194765
 Thermal correction to Gibbs Free Energy=         0.145960
 Sum of electronic and zero-point Energies=           -457.562836
 Sum of electronic and thermal Energies=              -457.552092
 Sum of electronic and thermal Enthalpies=            -457.551147
 Sum of electronic and thermal Free Energies=         -457.599953

                     E (Thermal)             CV                S
                      KCal/Mol        Cal/Mol-Kelvin    Cal/Mol-Kelvin
 Total                  121.624             37.925            102.720
 Electronic               0.000              0.000              0.000
 Translational            0.889              2.981             40.548
 Rotational               0.889              2.981             29.790
 Vibrational            119.847             31.964             32.382
 Vibration     1          0.595              1.980              5.102
 Vibration     2          0.597              1.971              4.294
 Vibration     3          0.599              1.966              4.026
 Vibration     4          0.611              1.925              2.965
 Vibration     5          0.617              1.907              2.727
 Vibration     6          0.647              1.811              1.960
 Vibration     7          0.654              1.791              1.856
 Vibration     8          0.668              1.746              1.663
 Vibration     9          0.681              1.709              1.528
 Vibration    10          0.723              1.587              1.193
 Vibration    11          0.781              1.431              0.899
 Vibration    12          0.805              1.371              0.810
 Vibration    13          0.883              1.188              0.592
 Vibration    14          0.963              1.022              0.442

                           ! Non-Optimized Parameters !
 Normal termination of Gaussian 16 at Wed Jul 17 14:40:13 2024.
 Gaussian 16:  ES64L-G16RevA.03 25-Dec-2016

 ----------------------------------------------------------------------
 # TD(NStates=10, Root=1) B3LYP/6-31G** SCRF=(Solvent=water) volume pop
 =NPA density=current Geom=AllCheck Guess=Read
 ----------------------------------------------------------------------

 Structure from the checkpoint file:  "AHLPHDHHMVZTML-BYPYZUCNSA-N_conf_1_2.chk"
 ----------------------------------
 AHLPHDHHMVZTML-BYPYZUCNSA-N_conf_1
 ----------------------------------
 Charge =  0 Multiplicity = 1

                         Standard orientation:
 ---------------------------------------------------------------------
 Center     Atomic      Atomic             Coordinates (Angstroms)
 Number     Number       Type             X           Y           Z
 ---------------------------------------------------------------------
      1          7           0        1.217792    1.939556   -0.240930
      2          6           0        1.194938    0.712153    0.550942
      3          6           0       -0.238859    0.370586    1.022884
      4          6           0       -1.243700    0.126778   -0.109528
      5          6           0       -2.642774   -0.206187    0.413760
      6          7           0       -3.569782   -0.456279   -0.700940
      7          6           0        1.803275   -0.482351   -0.188399
      8          8           0        2.075206   -1.510337    0.641781
      9          8           0        2.007885   -0.530267   -1.385718
     10          1           0        2.184151    2.238761   -0.356115
     11          1           0        0.900631    1.722391   -1.184401
     12          1           0        1.803258    0.870459    1.448265
     13          1           0       -0.578201    1.208678    1.641936
     14          1           0       -0.190163   -0.511086    1.672123
     15          1           0       -1.307683    1.021644   -0.743064
     16          1           0       -0.908048   -0.693670   -0.756159
     17          1           0       -2.594212   -1.118726    1.021283
     18          1           0       -2.974302    0.600994    1.089849
     19          1           0       -3.718733    0.417280   -1.204702
     20          1           0       -4.483072   -0.702034   -0.323152
     21          1           0        2.428292   -2.238670    0.100779
 ---------------------------------------------------------------------

 SCF Done:  E(RB3LYP) =  -457.745912470     A.U. after    1 cycles

 Excitation energies and oscillator strengths:

 Excited State   1:      Singlet-A      5.7226 eV  216.66 nm  f=0.0072  <S**2>=0.000
      34 -> 37        -0.42914
      35 -> 37         0.55833
 This state for optimization and/or second-order correction.
 Total Energy, E(TD-HF/TD-DFT) =  -457.535609208
 Copying the excited state density for this state as the 1-particle RhoCI density.

 Excited State   2:      Singlet-A      6.0145 eV  206.14 nm  f=0.0008  <S**2>=0.000
      34 -> 37        -0.13573
      35 -> 37        -0.12853
      36 -> 37         0.68149

 Excited State   3:      Singlet-A      6.1052 eV  203.08 nm  f=0.0021  <S**2>=0.000
      34 -> 37         0.53927
      35 -> 37         0.41266
      36 -> 37         0.18644

 Excited State   4:      Singlet-A      7.4865 eV  165.61 nm  f=0.0151  <S**2>=0.000
      36 -> 38        -0.23592
      36 -> 39         0.54631
      36 -> 40        -0.37525

 Excited State   5:      Singlet-A      7.8287 eV  158.37 nm  f=0.0239  <S**2>=0.000
      35 -> 38         0.57796
      35 -> 39        -0.14902
      35 -> 40        -0.36115

 Excited State   6:      Singlet-A      8.0470 eV  154.07 nm  f=0.0063  <S**2>=0.000
      36 -> 38         0.64556
      36 -> 39         0.11137
      36 -> 40        -0.22571
      36 -> 42        -0.12143

 Excited State   7:      Singlet-A      8.1635 eV  151.88 nm  f=0.0122  <S**2>=0.000
      31 -> 37         0.38593
      32 -> 37        -0.13136
      33 -> 37         0.52144

 Excited State   8:      Singlet-A      8.1844 eV  151.49 nm  f=0.0996  <S**2>=0.000
      30 -> 37         0.11955
      31 -> 37        -0.19909
      32 -> 37         0.60155
      33 -> 37         0.24162

 Excited State   9:      Singlet-A      8.3278 eV  148.88 nm  f=0.0517  <S**2>=0.000
      31 -> 37         0.44019
      32 -> 37         0.25812
      34 -> 38         0.14913
      34 -> 39         0.11470
      34 -> 40         0.10147
      35 -> 38        -0.22298
      35 -> 39        -0.25819
      35 -> 40        -0.25351

 Excited State  10:      Singlet-A      8.3866 eV  147.84 nm  f=0.0040  <S**2>=0.000
      36 -> 38         0.12000
      36 -> 39         0.42537
      36 -> 40         0.53646

 The electronic state is 1-A.
 Alpha  occ. eigenvalues --  -19.19971 -19.14599 -14.31858 -14.30971 -10.32101
 Alpha  occ. eigenvalues --  -10.22914 -10.20373 -10.18770 -10.17991  -1.10835
 Alpha  occ. eigenvalues --   -1.01884  -0.89309  -0.87456  -0.77893  -0.71709
 Alpha  occ. eigenvalues --   -0.64985  -0.59805  -0.57149  -0.51361  -0.49304
 Alpha  occ. eigenvalues --   -0.48569  -0.47867  -0.46294  -0.44207  -0.42544
 Alpha  occ. eigenvalues --   -0.41989  -0.39706  -0.38675  -0.36897  -0.34426
 Alpha  occ. eigenvalues --   -0.33273  -0.33091  -0.32184  -0.28219  -0.25186
 Alpha  occ. eigenvalues --   -0.23742
 Alpha virt. eigenvalues --    0.00458   0.08028   0.08861   0.09187   0.11968
 Alpha virt. eigenvalues --    0.12929   0.13665   0.15743   0.16715   0.18782
 Alpha virt. eigenvalues --    0.19540   0.19887   0.20632   0.21907   0.22962

 Mulliken charges:
               1
     1  N   -0.499006
     2  C   -0.031409
     3  C   -0.159484
     4  C   -0.185449
     5  C   -0.051709
     6  N   -0.645054
     7  C    0.393855
     8  O   -0.525797
     9  O   -0.464685
    10  H    0.300821
    11  H    0.295925
    12  H    0.124046
    13  H    0.100561
    14  H    0.114497
    15  H    0.096779
    16  H    0.106872
    17  H    0.103280
    18  H    0.084231
    19  H    0.250201
    20  H    0.252068
    21  H    0.339457
 Sum of Mulliken charges =  -0.00000

 Dipole moment (field-independent basis, Debye):
    X=             -0.8219    Y=              2.5286    Z=              1.3131  Tot=              2.9654
 Quadrupole moment (field-independent basis, Debye-Ang):
   XX=            -46.7824   YY=            -49.6807   ZZ=            -58.9413
   XY=             -1.0723   XZ=             -0.9390   YZ=             -4.1242

 Summary of Natural Population Analysis:

                                       Natural Population
                Natural  -----------------------------------------------
    Atom  No    Charge         Core      Valence    Rydberg      Total
 -----------------------------------------------------------------------
      N    1   -0.69943      1.99953     5.68804    0.01186     7.69943
      C    2   -0.13689      1.99916     4.11679    0.02093     6.13689
      C    3   -0.46960      1.99927     4.45745    0.01287     6.46960
      C    4   -0.48462      1.99932     4.47296    0.01234     6.48462
      C    5   -0.25578      1.99936     4.24309    0.01333     6.25578
      N    6   -0.92755      1.99968     5.91303    0.01484     7.92755
      C    7    0.45274      1.99940     3.50208    0.04578     5.54726
      O    8   -0.72874      1.99979     6.71792    0.01103     8.72874
      O    9   -0.51036      1.99981     6.49096    0.01959     8.51036
      H   10    0.41533      0.00000     0.58216    0.00251     0.58467
      H   11    0.40800      0.00000     0.58856    0.00345     0.59200
      H   12    0.25674      0.00000     0.73760    0.00566     0.74326
      H   13    0.24287      0.00000     0.75275    0.00438     0.75713
      H   14    0.25020      0.00000     0.74769    0.00211     0.74980
      H   15    0.22762      0.00000     0.76999    0.00240     0.77238
      H   16    0.24199      0.00000     0.75514    0.00287     0.75801
      H   17    0.22506      0.00000     0.77283    0.00212     0.77494
      H   18    0.20347      0.00000     0.79378    0.00275     0.79653
      H   19    0.38354      0.00000     0.61357    0.00289     0.61646
      H   20    0.39052      0.00000     0.60685    0.00263     0.60948
      H   21    0.51491      0.00000     0.48041    0.00469     0.48509
 =======================================================================
   * Total *   -0.00000     17.99533    53.80363    0.20104    72.00000

 Normal termination of Gaussian 16 at Wed Jul 17 14:46:03 2024.
