 Gaussian 16, Revision A.03,

 -------------------------------------------------------
 # opt=CalcFc B3LYP/6-31G** SCRF=(Solvent=water) scf=xqc
 -------------------------------------------------------

 ----------------------------------
 AHLPHDHHMVZTML-BYPYZUCNSA-N_conf_2
 ----------------------------------
 Symbolic Z-matrix:
 Charge =  0 Multiplicity = 1

 SCF Done:  E(RB3LYP) =  -457.741727307     A.U. after   12 cycles
 SCF Done:  E(RB3LYP) =  -457.745437985     A.U. after   10 cycles
 SCF Done:  E(RB3LYP) =  -457.745603363     A.U. after   12 cycles
 SCF Done:  E(RB3LYP) =  -457.745646193     A.U. after   10 cycles
 SCF Done:  E(RB3LYP) =  -457.745648269     A.U. after    8 cycles
 SCF Done:  E(RB3LYP) =  -457.745648111     A.U. after    7 cycles
 Optimization completed.
    -- Stationary point found.
 Normal termination of Gaussian 16 at Wed Jul 17 14:36:06 2024.

 ----------------------------------------------------------------------
 # freq B3LYP/6-31G** SCRF=(Solvent=water) volume NMR pop=NPA density=c
 urrent Geom=AllCheck Guess=Read
 ----------------------------------------------------------------------

 Structure from the checkpoint file:  "AHLPHDHHMVZTML-BYPYZUCNSA-N_conf_2_1.chk"
 ----------------------------------
 AHLPHDHHMVZTML-BYPYZUCNSA-N_conf_2
 ----------------------------------
 Charge =  0 Multiplicity = 1

 SCF Done:  E(RB3LYP) =  -457.745648111     A.U. after    1 cycles

      1  N    Isotropic =   226.4393   Anisotropy =    39.1791

      2  C    Isotropic =   138.5240   Anisotropy =    31.2299

      3  C    Isotropic =   155.5989   Anisotropy =    27.1453

      4  C    Isotropic =   157.2855   Anisotropy =    31.5157

      5  C    Isotropic =   148.2644   Anisotropy =    36.6563

      6  N    Isotropic =   231.1839   Anisotropy =    26.1341

      7  C    Isotropic =    19.1498   Anisotropy =   102.0903

      8  O    Isotropic =   140.0923   Anisotropy =   174.7268

      9  O    Isotropic =   -29.2378   Anisotropy =   511.8590

     10  H    Isotropic =    30.7013   Anisotropy =    11.7676

     11  H    Isotropic =    30.7427   Anisotropy =    15.4506

     12  H    Isotropic =    28.3844   Anisotropy =     4.5324

     13  H    Isotropic =    30.3094   Anisotropy =     5.9940

     14  H    Isotropic =    30.0187   Anisotropy =     6.0477

     15  H    Isotropic =    30.3221   Anisotropy =     3.5681

     16  H    Isotropic =    30.4380   Anisotropy =     7.1261

     17  H    Isotropic =    28.8341   Anisotropy =     5.7485

     18  H    Isotropic =    29.3364   Anisotropy =     5.7604

     19  H    Isotropic =    31.4310   Anisotropy =    12.3606

     20  H    Isotropic =    31.4596   Anisotropy =    12.9458

     21  H    Isotropic =    25.2936   Anisotropy =    12.5190

  Exact polarizability:  98.224  -3.578  92.260   2.110  -0.158  80.168
 Approx polarizability: 105.871  -3.256 101.138   7.727  -0.690  94.394

                      1                      2                      3
                      A                      A                      A
 Frequencies --     36.7429                51.8051                87.7756
 Red. masses --      6.0957                 6.2951                 1.7365
 Frc consts  --      0.0048                 0.0100                 0.0079
 IR Inten    --      2.0419                 3.1597                 2.3933

                      4                      5                      6
                      A                      A                      A
 Frequencies --    117.6685               180.4916               244.0486
 Red. masses --      3.5701                 3.3323                 1.4265
 Frc consts  --      0.0291                 0.0640                 0.0501
 IR Inten    --      0.2926                 3.6815                56.2332

                      7                      8                      9
                      A                      A                      A
 Frequencies --    271.2383               287.6244               301.7799
 Red. masses --      2.6838                 2.0822                 1.2460
 Frc consts  --      0.1163                 0.1015                 0.0669
 IR Inten    --     11.3900                16.5600                60.5582

                     10                     11                     12
                      A                      A                      A
 Frequencies --    326.1666               335.4064               456.5750
 Red. masses --      2.4024                 2.7560                 4.1899
 Frc consts  --      0.1506                 0.1827                 0.5146
 IR Inten    --     18.0069                18.8287                20.5315

                     13                     14                     15
                      A                      A                      A
 Frequencies --    559.2732               614.5712               640.3777
 Red. masses --      2.9535                 1.2168                 3.3250
 Frc consts  --      0.5443                 0.2708                 0.8034
 IR Inten    --     23.2408               131.7969                13.0174

                     16                     17                     18
                      A                      A                      A
 Frequencies --    736.5261               762.8888               795.5934
 Red. masses --      1.5268                 3.3659                 1.7498
 Frc consts  --      0.4880                 1.1542                 0.6526
 IR Inten    --     39.5294                35.5764                27.7784

                     19                     20                     21
                      A                      A                      A
 Frequencies --    866.0482               895.8402               936.2206
 Red. masses --      2.2466                 1.6607                 1.7346
 Frc consts  --      0.9928                 0.7852                 0.8958
 IR Inten    --     24.2383               155.0148               203.4557

                     22                     23                     24
                      A                      A                      A
 Frequencies --    955.2757              1023.5866              1051.3126
 Red. masses --      1.7027                 1.6741                 1.9146
 Frc consts  --      0.9154                 1.0334                 1.2468
 IR Inten    --    137.9806                10.9621                15.3025

                     25                     26                     27
                      A                      A                      A
 Frequencies --   1065.4561              1096.9825              1128.6710
 Red. masses --      2.6539                 1.9635                 2.0059
 Frc consts  --      1.7751                 1.3921                 1.5055
 IR Inten    --     19.4728                 6.5841                72.1564

                     28                     29                     30
                      A                      A                      A
 Frequencies --   1154.2210              1164.0108              1198.3335
 Red. masses --      2.2965                 1.5439                 1.5057
 Frc consts  --      1.8026                 1.2325                 1.2739
 IR Inten    --    291.1039                18.0890                15.5987

                     31                     32                     33
                      A                      A                      A
 Frequencies --   1272.4336              1303.5757              1322.6916
 Red. masses --      1.4691                 1.4014                 1.2547
 Frc consts  --      1.4014                 1.4030                 1.2933
 IR Inten    --      4.7173                10.0714                 3.2198

                     34                     35                     36
                      A                      A                      A
 Frequencies --   1351.6746              1374.6938              1380.3342
 Red. masses --      1.2872                 1.3617                 1.5370
 Frc consts  --      1.3856                 1.5161                 1.7254
 IR Inten    --     23.4571                 9.1427                20.3969

                     37                     38                     39
                      A                      A                      A
 Frequencies --   1398.7914              1414.0628              1433.7173
 Red. masses --      1.2116                 1.3921                 1.5171
 Frc consts  --      1.3968                 1.6400                 1.8374
 IR Inten    --      2.8566                 0.8855                11.4175

                     40                     41                     42
                      A                      A                      A
 Frequencies --   1485.8517              1494.5614              1508.2070
 Red. masses --      1.0796                 1.0975                 1.0931
 Frc consts  --      1.4043                 1.4444                 1.4650
 IR Inten    --      2.8510                 8.8409                 2.1813

                     43                     44                     45
                      A                      A                      A
 Frequencies --   1660.4073              1664.5767              1805.4031
 Red. masses --      1.0867                 1.0898                10.1102
 Frc consts  --      1.7652                 1.7792                19.4160
 IR Inten    --     32.4005                38.8930               415.8933

                     46                     47                     48
                      A                      A                      A
 Frequencies --   3025.8823              3032.9645              3038.4493
 Red. masses --      1.0605                 1.0640                 1.0619
 Frc consts  --      5.7211                 5.7665                 5.7761
 IR Inten    --      8.8547                90.5753                43.4654

                     49                     50                     51
                      A                      A                      A
 Frequencies --   3061.1258              3079.0343              3088.5195
 Red. masses --      1.0995                 1.0984                 1.1027
 Frc consts  --      6.0703                 6.1355                 6.1972
 IR Inten    --      9.5414                16.3266               110.9719

                     52                     53                     54
                      A                      A                      A
 Frequencies --   3097.9977              3469.7025              3477.9328
 Red. masses --      1.0902                 1.0501                 1.0505
 Frc consts  --      6.1648                 7.4488                 7.4867
 IR Inten    --     51.2921                 1.3612                 1.1821

                     55                     56                     57
                      A                      A                      A
 Frequencies --   3547.1266              3556.3517              3725.7532
 Red. masses --      1.0915                 1.0915                 1.0644
 Frc consts  --      8.0918                 8.1333                 8.7056
 IR Inten    --      0.1238                 1.9011                79.9598

 - Thermochemistry -
 -------------------
 Temperature   298.150 Kelvin.  Pressure   1.00000 Atm.
 Atom     1 has atomic number  7 and mass  14.00307

 Molecular mass:   132.08988 amu.
 Principal axes and moments of inertia in atomic units:
                           1         2         3
     Eigenvalues --   723.274931982.740312361.23245
           X            0.99981  -0.01505  -0.01236
           Y            0.01496   0.99986  -0.00706
           Z            0.01246   0.00687   0.99990
 This molecule is an asymmetric top.
 Rotational symmetry number  1.
 Warning -- assumption of classical behavior for rotation
           may cause significant error
 Rotational temperatures (Kelvin)      0.11975     0.04368     0.03668
 Rotational constants (GHZ):           2.49524     0.91023     0.76432
 Zero-point vibrational energy     480984.5 (Joules/Mol)
                                  114.95806 (Kcal/Mol)
 Warning -- explicit consideration of  14 degrees of freedom as
           vibrations may cause significant error
 Vibrational temperatures:     52.86    74.54   126.29   169.30   259.69
          (Kelvin)            351.13   390.25   413.83   434.19   469.28
                              482.58   656.91   804.67   884.23   921.36
                             1059.70  1097.63  1144.68  1246.05  1288.91
                             1347.01  1374.43  1472.71  1512.60  1532.95
                             1578.31  1623.91  1660.67  1674.75  1724.13
                             1830.75  1875.55  1903.06  1944.76  1977.88
                             1985.99  2012.55  2034.52  2062.80  2137.81
                             2150.34  2169.97  2388.96  2394.95  2597.57
                             4353.57  4363.76  4371.65  4404.28  4430.04
                             4443.69  4457.33  4992.13  5003.97  5103.52
                             5116.80  5360.53

 Zero-point correction=                           0.183197 (Hartree/Particle)
 Thermal correction to Energy=                    0.193854
 Thermal correction to Enthalpy=                  0.194798
 Thermal correction to Gibbs Free Energy=         0.146160
 Sum of electronic and zero-point Energies=           -457.562451
 Sum of electronic and thermal Energies=              -457.551794
 Sum of electronic and thermal Enthalpies=            -457.550850
 Sum of electronic and thermal Free Energies=         -457.599488

                     E (Thermal)             CV                S
                      KCal/Mol        Cal/Mol-Kelvin    Cal/Mol-Kelvin
 Total                  121.645             37.892            102.367
 Electronic               0.000              0.000              0.000
 Translational            0.889              2.981             40.548
 Rotational               0.889              2.981             29.605
 Vibrational            119.868             31.930             32.214
 Vibration     1          0.594              1.982              5.427
 Vibration     2          0.596              1.977              4.747
 Vibration     3          0.601              1.958              3.709
 Vibration     4          0.608              1.935              3.138
 Vibration     5          0.629              1.866              2.323
 Vibration     6          0.659              1.773              1.773
 Vibration     7          0.675              1.726              1.588
 Vibration     8          0.685              1.697              1.488
 Vibration     9          0.694              1.670              1.407
 Vibration    10          0.710              1.623              1.279
 Vibration    11          0.717              1.605              1.234
 Vibration    12          0.815              1.346              0.776
 Vibration    13          0.915              1.119              0.525
 Vibration    14          0.974              1.001              0.425

 Optimization completed.
    -- Stationary point found.
 Normal termination of Gaussian 16 at Wed Jul 17 14:40:45 2024.
 Gaussian 16:  ES64L-G16RevA.03 25-Dec-2016

 ----------------------------------------------------------------------
 # TD(NStates=10, Root=1) B3LYP/6-31G** SCRF=(Solvent=water) volume pop
 =NPA density=current Geom=AllCheck Guess=Read
 ----------------------------------------------------------------------

 Structure from the checkpoint file:  "AHLPHDHHMVZTML-BYPYZUCNSA-N_conf_2_2.chk"
 ----------------------------------
 AHLPHDHHMVZTML-BYPYZUCNSA-N_conf_2
 ----------------------------------
 Charge =  0 Multiplicity = 1

                         Standard orientation:
 ---------------------------------------------------------------------
 Center     Atomic      Atomic             Coordinates (Angstroms)
 Number     Number       Type             X           Y           Z
 ---------------------------------------------------------------------
      1          7           0        2.091077   -1.550621   -0.577121
      2          6           0        0.977188   -0.610141   -0.440761
      3          6           0       -0.038091   -1.178466    0.579907
      4          6           0       -1.329053   -0.373630    0.796755
      5          6           0       -2.234309   -0.266761   -0.441213
      6          7           0       -3.521720    0.408475   -0.222991
      7          6           0        1.441777    0.775228    0.009263
      8          8           0        0.700815    1.771649   -0.518261
      9          8           0        2.365157    0.974881    0.774836
     10          1           0        2.641760   -1.514678    0.280426
     11          1           0        2.718245   -1.224899   -1.310669
     12          1           0        0.495456   -0.503956   -1.416977
     13          1           0        0.483945   -1.291832    1.538718
     14          1           0       -0.283424   -2.190005    0.236918
     15          1           0       -1.096399    0.636676    1.157245
     16          1           0       -1.897310   -0.860915    1.599921
     17          1           0       -1.712492    0.271101   -1.240863
     18          1           0       -2.441184   -1.274135   -0.825975
     19          1           0       -3.343870    1.349844    0.125331
     20          1           0       -4.016584   -0.063003    0.533450
     21          1           0        1.033510    2.611204   -0.153053
 ---------------------------------------------------------------------

 SCF Done:  E(RB3LYP) =  -457.745648111     A.U. after    1 cycles

 Excitation energies and oscillator strengths:

 Excited State   1:      Singlet-A      5.6433 eV  219.70 nm  f=0.0092  <S**2>=0.000
      34 -> 37        -0.37211
      35 -> 37         0.59811
 This state for optimization and/or second-order correction.
 Total Energy, E(TD-HF/TD-DFT) =  -457.538259694
 Copying the excited state density for this state as the 1-particle RhoCI density.

 Excited State   2:      Singlet-A      5.8778 eV  210.94 nm  f=0.0054  <S**2>=0.000
      36 -> 37         0.70538

 Excited State   3:      Singlet-A      6.1420 eV  201.86 nm  f=0.0104  <S**2>=0.000
      34 -> 37         0.59319
      35 -> 37         0.37430

 Excited State   4:      Singlet-A      7.4612 eV  166.17 nm  f=0.0153  <S**2>=0.000
      36 -> 38         0.47676
      36 -> 39        -0.44424
      36 -> 40        -0.25772

 Excited State   5:      Singlet-A      7.9511 eV  155.93 nm  f=0.0187  <S**2>=0.000
      33 -> 37         0.19379
      35 -> 38         0.38892
      35 -> 39         0.45165
      35 -> 40        -0.26072

 Excited State   6:      Singlet-A      7.9716 eV  155.53 nm  f=0.1029  <S**2>=0.000
      32 -> 37         0.33017
      33 -> 37         0.55573
      35 -> 39        -0.18714
      35 -> 40         0.14346

 Excited State   7:      Singlet-A      8.0089 eV  154.81 nm  f=0.0055  <S**2>=0.000
      36 -> 38         0.49634
      36 -> 39         0.44726
      36 -> 40         0.11491
      36 -> 42        -0.11725

 Excited State   8:      Singlet-A      8.1611 eV  151.92 nm  f=0.0224  <S**2>=0.000
      31 -> 37        -0.29998
      32 -> 37         0.45959
      33 -> 37        -0.16524
      34 -> 38         0.13996
      35 -> 38        -0.28344
      35 -> 39         0.13682
      35 -> 40        -0.16795

 Excited State   9:      Singlet-A      8.2766 eV  149.80 nm  f=0.0265  <S**2>=0.000
      31 -> 37         0.48239
      33 -> 37         0.10836
      35 -> 38        -0.39488
      35 -> 39         0.19695
      35 -> 40        -0.18120

 Excited State  10:      Singlet-A      8.4295 eV  147.08 nm  f=0.0174  <S**2>=0.000
      31 -> 37        -0.10389
      36 -> 39        -0.18911
      36 -> 40         0.56710
      36 -> 41         0.24663
      36 -> 42         0.15490
      36 -> 43         0.10235

 The electronic state is 1-A.
 Alpha  occ. eigenvalues --  -19.20184 -19.14564 -14.32014 -14.31045 -10.32131
 Alpha  occ. eigenvalues --  -10.22861 -10.20251 -10.18914 -10.17957  -1.10909
 Alpha  occ. eigenvalues --   -1.01916  -0.89355  -0.87529  -0.77913  -0.70843
 Alpha  occ. eigenvalues --   -0.65677  -0.60729  -0.56629  -0.51861  -0.49566
 Alpha  occ. eigenvalues --   -0.48579  -0.47538  -0.45851  -0.44540  -0.42180
 Alpha  occ. eigenvalues --   -0.40801  -0.40233  -0.38885  -0.36137  -0.36038
 Alpha  occ. eigenvalues --   -0.33734  -0.32903  -0.31943  -0.28488  -0.25120
 Alpha  occ. eigenvalues --   -0.23642
 Alpha virt. eigenvalues --    0.00253   0.07868   0.08943   0.09927   0.11493
 Alpha virt. eigenvalues --    0.11916   0.13938   0.16174   0.17677   0.18182
 Alpha virt. eigenvalues --    0.18404   0.19384   0.20309   0.22017   0.23965

 Mulliken charges:
               1
     1  N   -0.476872
     2  C   -0.039857
     3  C   -0.168312
     4  C   -0.183055
     5  C   -0.059640
     6  N   -0.640793
     7  C    0.395609
     8  O   -0.523657
     9  O   -0.477591
    10  H    0.298638
    11  H    0.296685
    12  H    0.141240
    13  H    0.101512
    14  H    0.098374
    15  H    0.101675
    16  H    0.094896
    17  H    0.107255
    18  H    0.100138
    19  H    0.249261
    20  H    0.248409
    21  H    0.336086
 Sum of Mulliken charges =  -0.00000

 Dipole moment (field-independent basis, Debye):
    X=              1.1195    Y=             -1.3347    Z=              0.3485  Tot=              1.7766
 Quadrupole moment (field-independent basis, Debye-Ang):
   XX=            -59.0597   YY=            -49.7283   ZZ=            -55.6605
   XY=             -4.1531   XZ=            -11.4162   YZ=              0.3898

 Summary of Natural Population Analysis:

                                       Natural Population
                Natural  -----------------------------------------------
    Atom  No    Charge         Core      Valence    Rydberg      Total
 -----------------------------------------------------------------------
      N    1   -0.66864      1.99951     5.65728    0.01185     7.66864
      C    2   -0.14946      1.99916     4.12912    0.02118     6.14946
      C    3   -0.47575      1.99928     4.46244    0.01402     6.47575
      C    4   -0.48703      1.99931     4.47618    0.01153     6.48703
      C    5   -0.26730      1.99936     4.25280    0.01514     6.26730
      N    6   -0.92338      1.99971     5.90848    0.01519     7.92338
      C    7    0.45746      1.99939     3.49616    0.04698     5.54254
      O    8   -0.72906      1.99979     6.71850    0.01077     8.72906
      O    9   -0.53417      1.99981     6.51455    0.01981     8.53417
      H   10    0.40933      0.00000     0.58696    0.00371     0.59067
      H   11    0.41351      0.00000     0.58275    0.00375     0.58649
      H   12    0.26805      0.00000     0.72864    0.00330     0.73195
      H   13    0.24417      0.00000     0.75355    0.00228     0.75583
      H   14    0.23852      0.00000     0.75749    0.00399     0.76148
      H   15    0.23787      0.00000     0.75962    0.00251     0.76213
      H   16    0.23946      0.00000     0.75830    0.00225     0.76054
      H   17    0.22501      0.00000     0.77263    0.00236     0.77499
      H   18    0.22203      0.00000     0.77574    0.00223     0.77797
      H   19    0.38360      0.00000     0.61345    0.00295     0.61640
      H   20    0.38272      0.00000     0.61432    0.00295     0.61728
      H   21    0.51306      0.00000     0.48205    0.00489     0.48694
 =======================================================================
   * Total *    0.00000     17.99531    53.80103    0.20366    72.00000

 Normal termination of Gaussian 16 at Wed Jul 17 14:47:03 2024.
