 Gaussian 16, Revision A.03,

 -------------------------------------------------------
 # opt=CalcFc B3LYP/6-31G** SCRF=(Solvent=water) scf=xqc
 -------------------------------------------------------

 ----------------------------------
 QNGVNLMMEQUVQK-UHFFFAOYSA-N_conf_0
 ----------------------------------
 Symbolic Z-matrix:
 Charge =  0 Multiplicity = 1

 SCF Done:  E(RB3LYP) =  -500.223467652     A.U. after   12 cycles
 SCF Done:  E(RB3LYP) =  -500.227902757     A.U. after   10 cycles
 SCF Done:  E(RB3LYP) =  -500.228274170     A.U. after   11 cycles
 SCF Done:  E(RB3LYP) =  -500.228315806     A.U. after   10 cycles
 SCF Done:  E(RB3LYP) =  -500.228360277     A.U. after    9 cycles
 SCF Done:  E(RB3LYP) =  -500.228362661     A.U. after    8 cycles
 SCF Done:  E(RB3LYP) =  -500.228363216     A.U. after    7 cycles
 SCF Done:  E(RB3LYP) =  -500.228363354     A.U. after    7 cycles
 SCF Done:  E(RB3LYP) =  -500.228363407     A.U. after    7 cycles
 Optimization completed on the basis of negligible forces.
    -- Stationary point found.
 Normal termination of Gaussian 16 at Thu Jul 11 21:25:59 2024.

 ----------------------------------------------------------------------
 # freq B3LYP/6-31G** SCRF=(Solvent=water) volume NMR pop=NPA density=c
 urrent Geom=AllCheck Guess=Read
 ----------------------------------------------------------------------

 Structure from the checkpoint file:  "QNGVNLMMEQUVQK-UHFFFAOYSA-N_conf_0_1.chk"
 ----------------------------------
 QNGVNLMMEQUVQK-UHFFFAOYSA-N_conf_0
 ----------------------------------
 Charge =  0 Multiplicity = 1

 SCF Done:  E(RB3LYP) =  -500.228363407     A.U. after    1 cycles

      1  N    Isotropic =   206.4253   Anisotropy =    74.3017

      2  C    Isotropic =    60.5401   Anisotropy =   146.2488

      3  C    Isotropic =    80.9234   Anisotropy =   130.9520

      4  C    Isotropic =    85.3732   Anisotropy =   140.2026

      5  C    Isotropic =    59.3552   Anisotropy =   139.9391

      6  N    Isotropic =   185.3485   Anisotropy =    38.7172

      7  C    Isotropic =   143.9981   Anisotropy =    49.2979

      8  C    Isotropic =   177.1546   Anisotropy =    20.7559

      9  C    Isotropic =   143.9862   Anisotropy =    49.3118

     10  C    Isotropic =   177.1510   Anisotropy =    20.7533

     11  C    Isotropic =    85.3743   Anisotropy =   140.1548

     12  C    Isotropic =    80.9224   Anisotropy =   130.9539

     13  H    Isotropic =    29.1199   Anisotropy =    12.2367

     14  H    Isotropic =    29.1197   Anisotropy =    12.2361

     15  H    Isotropic =    25.1850   Anisotropy =     5.9753

     16  H    Isotropic =    25.2112   Anisotropy =     8.9915

     17  H    Isotropic =    28.6809   Anisotropy =     7.1027

     18  H    Isotropic =    27.9558   Anisotropy =     6.9564

     19  H    Isotropic =    30.2019   Anisotropy =     5.9031

     20  H    Isotropic =    30.9626   Anisotropy =    10.9301

     21  H    Isotropic =    30.6619   Anisotropy =     7.5771

     22  H    Isotropic =    28.6805   Anisotropy =     7.1084

     23  H    Isotropic =    27.9576   Anisotropy =     6.9493

     24  H    Isotropic =    30.6598   Anisotropy =     7.5742

     25  H    Isotropic =    30.9622   Anisotropy =    10.9304

     26  H    Isotropic =    30.2033   Anisotropy =     5.9062

     27  H    Isotropic =    25.2114   Anisotropy =     8.9913

     28  H    Isotropic =    25.1850   Anisotropy =     5.9755

  Exact polarizability: 226.680   0.002 170.388  14.034  -0.038  88.281
 Approx polarizability: 248.861   0.001 200.877  17.771  -0.053 101.437

                      1                      2                      3
                      A                      A                      A
 Frequencies --     19.9952                63.1872               104.5505
 Red. masses --      2.8210                 3.7293                 2.7031
 Frc consts  --      0.0007                 0.0088                 0.0174
 IR Inten    --      0.2154                 3.2255                 0.7368

                      4                      5                      6
                      A                      A                      A
 Frequencies --    110.4484               158.1152               190.3394
 Red. masses --      3.1300                 4.3993                 1.2067
 Frc consts  --      0.0225                 0.0648                 0.0258
 IR Inten    --      0.4551                 2.8662                 0.6723

                      7                      8                      9
                      A                      A                      A
 Frequencies --    222.4201               235.2987               262.9215
 Red. masses --      1.0582                 1.0448                 2.1040
 Frc consts  --      0.0308                 0.0341                 0.0857
 IR Inten    --      0.0664                41.5444                 2.4478

                     10                     11                     12
                      A                      A                      A
 Frequencies --    306.5335               338.6308               384.2913
 Red. masses --      2.6093                 3.9578                 4.0759
 Frc consts  --      0.1445                 0.2674                 0.3546
 IR Inten    --      2.0014                 8.4129                 2.9475

                     13                     14                     15
                      A                      A                      A
 Frequencies --    397.8502               426.8422               439.4267
 Red. masses --      2.9741                 3.2356                 3.2717
 Frc consts  --      0.2774                 0.3473                 0.3722
 IR Inten    --      0.0012                 0.0889                19.8036

                     16                     17                     18
                      A                      A                      A
 Frequencies --    512.2788               519.1398               529.5754
 Red. masses --      2.8031                 2.6639                 2.2035
 Frc consts  --      0.4334                 0.4230                 0.3641
 IR Inten    --      4.3791                 9.4005                32.7274

                     19                     20                     21
                      A                      A                      A
 Frequencies --    658.2241               671.3523               699.3072
 Red. masses --      6.8393                 2.9862                 2.3619
 Frc consts  --      1.7459                 0.7930                 0.6805
 IR Inten    --      0.0004               232.6385               116.9885

                     22                     23                     24
                      A                      A                      A
 Frequencies --    732.4695               788.7063               790.8252
 Red. masses --      2.2921                 1.1275                 1.2412
 Frc consts  --      0.7245                 0.4132                 0.4574
 IR Inten    --    271.1191                 4.7736                10.1994

                     25                     26                     27
                      A                      A                      A
 Frequencies --    808.8302               821.5975               844.9804
 Red. masses --      1.2545                 1.9433                 2.9616
 Frc consts  --      0.4836                 0.7729                 1.2458
 IR Inten    --      0.5191               106.0546                42.6874

                     28                     29                     30
                      A                      A                      A
 Frequencies --    908.4377               920.4517               923.6313
 Red. masses --      2.2604                 2.0815                 1.3091
 Frc consts  --      1.0991                 1.0390                 0.6580
 IR Inten    --      0.3699                 2.7238                 1.5847

                     31                     32                     33
                      A                      A                      A
 Frequencies --    932.9107              1017.9362              1027.3525
 Red. masses --      1.3360                 3.2018                 2.7025
 Frc consts  --      0.6851                 1.9547                 1.6806
 IR Inten    --      0.4608                 8.9405                24.7655

                     34                     35                     36
                      A                      A                      A
 Frequencies --   1086.6516              1100.4393              1107.9383
 Red. masses --      1.9712                 1.7584                 1.4812
 Frc consts  --      1.3714                 1.2546                 1.0713
 IR Inten    --      0.8358                48.2883                 0.3991

                     37                     38                     39
                      A                      A                      A
 Frequencies --   1115.7547              1167.6194              1180.9605
 Red. masses --      1.6659                 1.2330                 2.0258
 Frc consts  --      1.2219                 0.9905                 1.6646
 IR Inten    --     37.1346                12.2487                27.0560

                     40                     41                     42
                      A                      A                      A
 Frequencies --   1221.5482              1232.5756              1296.0777
 Red. masses --      1.1138                 2.4988                 2.1404
 Frc consts  --      0.9792                 2.2367                 2.1184
 IR Inten    --      0.5352               108.1712               290.0814

                     43                     44                     45
                      A                      A                      A
 Frequencies --   1303.5867              1319.4971              1366.3566
 Red. masses --      2.2456                 1.6617                 2.4487
 Frc consts  --      2.2483                 1.7046                 2.6935
 IR Inten    --     14.5967                34.0479                 6.4661

                     46                     47                     48
                      A                      A                      A
 Frequencies --   1372.7343              1388.3532              1396.8452
 Red. masses --      1.3615                 1.2739                 1.4545
 Frc consts  --      1.5116                 1.4467                 1.6721
 IR Inten    --      6.7750                31.2455               187.2221

                     49                     50                     51
                      A                      A                      A
 Frequencies --   1412.3607              1415.2862              1431.0043
 Red. masses --      1.2556                 1.2759                 1.5221
 Frc consts  --      1.4757                 1.5057                 1.8365
 IR Inten    --     19.3534                35.5870                26.2939

                     52                     53                     54
                      A                      A                      A
 Frequencies --   1482.7688              1493.2658              1494.7294
 Red. masses --      2.2619                 1.0958                 1.1163
 Frc consts  --      2.9300                 1.4397                 1.4694
 IR Inten    --     15.4541                 0.4612                 0.0656

                     55                     56                     57
                      A                      A                      A
 Frequencies --   1500.6023              1501.6286              1511.1077
 Red. masses --      1.0434                 1.0605                 1.0898
 Frc consts  --      1.3843                 1.4089                 1.4662
 IR Inten    --     21.0164                 2.3849                 1.5742

                     58                     59                     60
                      A                      A                      A
 Frequencies --   1524.5701              1556.8790              1618.3678
 Red. masses --      1.1052                 2.4719                 5.8598
 Frc consts  --      1.5135                 3.5302                 9.0425
 IR Inten    --     12.1333               546.7283                 4.0109

                     61                     62                     63
                      A                      A                      A
 Frequencies --   1655.8045              1681.1069              3033.1494
 Red. masses --      1.1396                 5.5067                 1.0630
 Frc consts  --      1.8408                 9.1692                 5.7621
 IR Inten    --     79.7521                 2.9804                57.8352

                     64                     65                     66
                      A                      A                      A
 Frequencies --   3036.9890              3045.2773              3047.0804
 Red. masses --      1.0666                 1.0359                 1.0364
 Frc consts  --      5.7964                 5.6603                 5.6697
 IR Inten    --    107.9195                19.4467                42.7346

                     67                     68                     69
                      A                      A                      A
 Frequencies --   3079.5782              3087.6414              3114.8543
 Red. masses --      1.1009                 1.0980                 1.1018
 Frc consts  --      6.1513                 6.1673                 6.2983
 IR Inten    --      5.8003                51.3883                84.3758

                     70                     71                     72
                      A                      A                      A
 Frequencies --   3117.2301              3127.1980              3130.9731
 Red. masses --      1.1006                 1.1036                 1.1035
 Frc consts  --      6.3009                 6.3586                 6.3738
 IR Inten    --     65.2235                12.9663               102.0081

                     73                     74                     75
                      A                      A                      A
 Frequencies --   3169.3522              3170.2700              3223.3012
 Red. masses --      1.0898                 1.0890                 1.0903
 Frc consts  --      6.4495                 6.4486                 6.6739
 IR Inten    --     29.4352                47.0792                33.7376

                     76                     77                     78
                      A                      A                      A
 Frequencies --   3224.2081              3535.9021              3631.1039
 Red. masses --      1.0903                 1.0493                 1.0960
 Frc consts  --      6.6780                 7.7291                 8.5143
 IR Inten    --     12.5647                10.2671                12.4651

 - Thermochemistry -
 -------------------
 Temperature   298.150 Kelvin.  Pressure   1.00000 Atm.
 Atom     1 has atomic number  7 and mass  14.00307

 Molecular mass:   164.13135 amu.
 Principal axes and moments of inertia in atomic units:
                           1         2         3
     Eigenvalues --  1044.651333271.144673997.90130
           X            1.00000   0.00001  -0.00096
           Y           -0.00001   1.00000  -0.00000
           Z            0.00096   0.00000   1.00000
 This molecule is an asymmetric top.
 Rotational symmetry number  1.
 Warning -- assumption of classical behavior for rotation
           may cause significant error
 Rotational temperatures (Kelvin)      0.08291     0.02648     0.02166
 Rotational constants (GHZ):           1.72760     0.55172     0.45142
 Zero-point vibrational energy     648850.8 (Joules/Mol)
                                  155.07907 (Kcal/Mol)
 Warning -- explicit consideration of  18 degrees of freedom as
           vibrations may cause significant error
 Vibrational temperatures:     28.77    90.91   150.42   158.91   227.49
          (Kelvin)            273.86   320.01   338.54   378.29   441.03
                              487.21   552.91   572.42   614.13   632.24
                              737.05   746.93   761.94   947.04   965.93
                             1006.15  1053.86  1134.77  1137.82  1163.73
                             1182.10  1215.74  1307.04  1324.32  1328.90
                             1342.25  1464.58  1478.13  1563.45  1583.29
                             1594.08  1605.32  1679.94  1699.14  1757.54
                             1773.40  1864.77  1875.57  1898.46  1965.88
                             1975.06  1997.53  2009.75  2032.07  2036.28
                             2058.90  2133.37  2148.48  2150.58  2159.03
                             2160.51  2174.15  2193.52  2240.00  2328.47
                             2382.33  2418.74  4364.03  4369.55  4381.47
                             4384.07  4430.83  4442.43  4481.58  4485.00
                             4499.34  4504.77  4559.99  4561.31  4637.61
                             4638.92  5087.37  5224.35

 Zero-point correction=                           0.247134 (Hartree/Particle)
 Thermal correction to Energy=                    0.259841
 Thermal correction to Enthalpy=                  0.260785
 Thermal correction to Gibbs Free Energy=         0.207652
 Sum of electronic and zero-point Energies=           -499.981229
 Sum of electronic and thermal Energies=              -499.968523
 Sum of electronic and thermal Enthalpies=            -499.967578
 Sum of electronic and thermal Free Energies=         -500.020711

                     E (Thermal)             CV                S
                      KCal/Mol        Cal/Mol-Kelvin    Cal/Mol-Kelvin
 Total                  163.053             48.524            111.828
 Electronic               0.000              0.000              0.000
 Translational            0.889              2.981             41.195
 Rotational               0.889              2.981             30.991
 Vibrational            161.275             42.562             39.641
 Vibration     1          0.593              1.986              6.635
 Vibration     2          0.597              1.972              4.355
 Vibration     3          0.605              1.946              3.368
 Vibration     4          0.606              1.941              3.261
 Vibration     5          0.621              1.894              2.572
 Vibration     6          0.634              1.853              2.225
 Vibration     7          0.648              1.807              1.939
 Vibration     8          0.655              1.787              1.838
 Vibration     9          0.670              1.741              1.642
 Vibration    10          0.697              1.661              1.381
 Vibration    11          0.719              1.598              1.219
 Vibration    12          0.753              1.504              1.022
 Vibration    13          0.764              1.475              0.971
 Vibration    14          0.789              1.412              0.869
 Vibration    15          0.799              1.384              0.828
 Vibration    16          0.867              1.223              0.628
 Vibration    17          0.874              1.208              0.612
 Vibration    18          0.885              1.185              0.588

 Optimization completed on the basis of negligible forces.
    -- Stationary point found.
 Normal termination of Gaussian 16 at Thu Jul 11 21:59:31 2024.
 Gaussian 16:  EM64L-G16RevA.03 25-Dec-2016

 ----------------------------------------------------------------------
 # TD(NStates=10, Root=1) B3LYP/6-31G** SCRF=(Solvent=water) volume pop
 =NPA density=current Geom=AllCheck Guess=Read
 ----------------------------------------------------------------------

 Structure from the checkpoint file:  "QNGVNLMMEQUVQK-UHFFFAOYSA-N_conf_0_2.chk"
 ----------------------------------
 QNGVNLMMEQUVQK-UHFFFAOYSA-N_conf_0
 ----------------------------------
 Charge =  0 Multiplicity = 1

                         Standard orientation:
 ---------------------------------------------------------------------
 Center     Atomic      Atomic             Coordinates (Angstroms)
 Number     Number       Type             X           Y           Z
 ---------------------------------------------------------------------
      1          7           0        4.177532   -0.000481    0.182831
      2          6           0        2.770030   -0.000298    0.072828
      3          6           0        2.043608    1.195036   -0.016581
      4          6           0        0.660950    1.199634   -0.192101
      5          6           0       -0.080037   -0.000022   -0.299911
      6          7           0       -1.458912    0.000131   -0.529206
      7          6           0       -2.209024    1.251681   -0.561608
      8          6           0       -2.527285    1.869491    0.808847
      9          6           0       -2.209188   -1.251280   -0.562516
     10          6           0       -2.529660   -1.868843    0.807538
     11          6           0        0.660514   -1.199803   -0.190586
     12          6           0        2.043184   -1.195479   -0.015105
     13          1           0        4.536115    0.825391    0.649187
     14          1           0        4.535817   -0.825898    0.650221
     15          1           0        2.566271    2.146115    0.056739
     16          1           0        0.162628    2.159812   -0.241011
     17          1           0       -3.145394    1.054449   -1.092810
     18          1           0       -1.665261    1.979980   -1.175541
     19          1           0       -1.615328    2.060921    1.381761
     20          1           0       -3.052789    2.822181    0.680340
     21          1           0       -3.166018    1.207877    1.401240
     22          1           0       -3.144730   -1.054034   -1.095197
     23          1           0       -1.664549   -1.979695   -1.175504
     24          1           0       -3.169438   -1.207160    1.398732
     25          1           0       -3.054913   -2.821584    0.678367
     26          1           0       -1.618638   -2.060092    1.382003
     27          1           0        0.161838   -2.159863   -0.238152
     28          1           0        2.565503   -2.146652    0.059429
 ---------------------------------------------------------------------

 SCF Done:  E(RB3LYP) =  -500.228363407     A.U. after    1 cycles

 Excitation energies and oscillator strengths:

 Excited State   1:      Singlet-A      3.9495 eV  313.92 nm  f=0.0918  <S**2>=0.000
      44 -> 47         0.11646
      45 -> 46         0.69759
 This state for optimization and/or second-order correction.
 Total Energy, E(TD-HF/TD-DFT) =  -500.083222377
 Copying the excited state density for this state as the 1-particle RhoCI density.

 Excited State   2:      Singlet-A      4.9542 eV  250.26 nm  f=0.6987  <S**2>=0.000
      45 -> 47         0.69489

 Excited State   3:      Singlet-A      5.8703 eV  211.20 nm  f=0.0050  <S**2>=0.000
      43 -> 46         0.69631
      44 -> 47        -0.11258

 Excited State   4:      Singlet-A      6.0416 eV  205.22 nm  f=0.0034  <S**2>=0.000
      44 -> 46         0.10250
      45 -> 48         0.68946

 Excited State   5:      Singlet-A      6.2840 eV  197.30 nm  f=0.0025  <S**2>=0.000
      45 -> 49         0.69210

 Excited State   6:      Singlet-A      6.4382 eV  192.58 nm  f=0.6917  <S**2>=0.000
      43 -> 47         0.13401
      44 -> 46         0.66870

 Excited State   7:      Singlet-A      6.6697 eV  185.89 nm  f=0.0032  <S**2>=0.000
      45 -> 50         0.69823

 Excited State   8:      Singlet-A      6.8214 eV  181.76 nm  f=0.2350  <S**2>=0.000
      42 -> 46         0.20356
      43 -> 46         0.10723
      44 -> 47         0.65365
      45 -> 46        -0.10506

 Excited State   9:      Singlet-A      6.9075 eV  179.49 nm  f=0.0225  <S**2>=0.000
      45 -> 51         0.69910

 Excited State  10:      Singlet-A      6.9190 eV  179.19 nm  f=0.0813  <S**2>=0.000
      43 -> 47         0.68465
      44 -> 46        -0.12236

 The electronic state is 1-A.
 Alpha  occ. eigenvalues --  -14.33878 -14.32751 -10.21740 -10.21292 -10.21291
 Alpha  occ. eigenvalues --  -10.21132 -10.17802 -10.17801 -10.17700 -10.17700
 Alpha  occ. eigenvalues --  -10.17246 -10.17245  -0.93443  -0.90198  -0.82125
 Alpha  occ. eigenvalues --   -0.76396  -0.74038  -0.73309  -0.69591  -0.63224
 Alpha  occ. eigenvalues --   -0.61884  -0.59815  -0.56093  -0.52003  -0.49842
 Alpha  occ. eigenvalues --   -0.48556  -0.45937  -0.45088  -0.43071  -0.42752
 Alpha  occ. eigenvalues --   -0.41165  -0.41129  -0.39925  -0.38874  -0.38094
 Alpha  occ. eigenvalues --   -0.37521  -0.36199  -0.35923  -0.34908  -0.33556
 Alpha  occ. eigenvalues --   -0.32126  -0.31418  -0.24352  -0.24331  -0.16558
 Alpha virt. eigenvalues --    0.00338   0.03417   0.08544   0.09759   0.11237
 Alpha virt. eigenvalues --    0.12078   0.12363   0.13837   0.14369   0.15794
 Alpha virt. eigenvalues --    0.16633   0.16853   0.17072   0.18504   0.18800

 Mulliken charges:
               1
     1  N   -0.634735
     2  C    0.260846
     3  C   -0.203520
     4  C   -0.196107
     5  C    0.324047
     6  N   -0.444280
     7  C   -0.065552
     8  C   -0.319030
     9  C   -0.065569
    10  C   -0.319044
    11  C   -0.196133
    12  C   -0.203523
    13  H    0.283611
    14  H    0.283611
    15  H    0.053723
    16  H    0.065101
    17  H    0.129213
    18  H    0.136456
    19  H    0.118871
    20  H    0.122888
    21  H    0.121414
    22  H    0.129235
    23  H    0.136421
    24  H    0.121427
    25  H    0.122905
    26  H    0.118884
    27  H    0.065115
    28  H    0.053723
 Sum of Mulliken charges =   0.00000

 Dipole moment (field-independent basis, Debye):
    X=             -3.5283    Y=              0.0011    Z=              1.2049  Tot=              3.7283
 Quadrupole moment (field-independent basis, Debye-Ang):
   XX=            -52.8500   YY=            -68.4211   ZZ=            -76.4853
   XY=              0.0038   XZ=             10.0214   YZ=             -0.0033

 Summary of Natural Population Analysis:

                                       Natural Population
                Natural  -----------------------------------------------
    Atom  No    Charge         Core      Valence    Rydberg      Total
 -----------------------------------------------------------------------
      N    1   -0.78956      1.99951     5.77874    0.01131     7.78956
      C    2    0.19572      1.99893     3.78738    0.01798     5.80428
      C    3   -0.38941      1.99905     4.37076    0.01960     6.38941
      C    4   -0.37505      1.99910     4.35666    0.01929     6.37505
      C    5    0.16561      1.99900     3.81585    0.01954     5.83439
      N    6   -0.28972      1.99933     5.27848    0.01190     7.28972
      C    7   -0.27658      1.99934     4.26161    0.01563     6.27658
      C    8   -0.69766      1.99944     4.69157    0.00665     6.69766
      C    9   -0.27657      1.99934     4.26160    0.01563     6.27657
      C   10   -0.69768      1.99944     4.69159    0.00665     6.69768
      C   11   -0.37504      1.99910     4.35665    0.01929     6.37504
      C   12   -0.38941      1.99905     4.37076    0.01960     6.38941
      H   13    0.41444      0.00000     0.58226    0.00330     0.58556
      H   14    0.41444      0.00000     0.58226    0.00330     0.58556
      H   15    0.22493      0.00000     0.77335    0.00172     0.77507
      H   16    0.22734      0.00000     0.77090    0.00177     0.77266
      H   17    0.25297      0.00000     0.74532    0.00171     0.74703
      H   18    0.25305      0.00000     0.74375    0.00320     0.74695
      H   19    0.23975      0.00000     0.75718    0.00307     0.76025
      H   20    0.24897      0.00000     0.74968    0.00135     0.75103
      H   21    0.23621      0.00000     0.76232    0.00146     0.76379
      H   22    0.25298      0.00000     0.74532    0.00171     0.74702
      H   23    0.25305      0.00000     0.74375    0.00321     0.74695
      H   24    0.23622      0.00000     0.76232    0.00146     0.76378
      H   25    0.24898      0.00000     0.74967    0.00135     0.75102
      H   26    0.23975      0.00000     0.75719    0.00307     0.76025
      H   27    0.22734      0.00000     0.77090    0.00177     0.77266
      H   28    0.22493      0.00000     0.77335    0.00172     0.77507
 =======================================================================
   * Total *    0.00000     23.99063    65.79114    0.21823    90.00000

 Normal termination of Gaussian 16 at Thu Jul 11 22:23:21 2024.
