 Gaussian 16, Revision A.03,

 -------------------------------------------------------
 # opt=CalcFc B3LYP/6-31G** SCRF=(Solvent=water) scf=xqc
 -------------------------------------------------------

 ----------------------------------
 QNGVNLMMEQUVQK-UHFFFAOYSA-N_conf_4
 ----------------------------------
 Symbolic Z-matrix:
 Charge =  0 Multiplicity = 1

 SCF Done:  E(RB3LYP) =  -500.224961938     A.U. after   12 cycles
 SCF Done:  E(RB3LYP) =  -500.228926676     A.U. after   10 cycles
 SCF Done:  E(RB3LYP) =  -500.228986368     A.U. after    9 cycles
 SCF Done:  E(RB3LYP) =  -500.227525711     A.U. after   11 cycles
 SCF Done:  E(RB3LYP) =  -500.228975415     A.U. after    9 cycles
 SCF Done:  E(RB3LYP) =  -500.228998069     A.U. after    7 cycles
 SCF Done:  E(RB3LYP) =  -500.229001772     A.U. after    8 cycles
 SCF Done:  E(RB3LYP) =  -500.229002475     A.U. after    8 cycles
 Optimization completed.
    -- Stationary point found.
 Normal termination of Gaussian 16 at Thu Jul 11 18:54:53 2024.

 ----------------------------------------------------------------------
 # freq B3LYP/6-31G** SCRF=(Solvent=water) volume NMR pop=NPA density=c
 urrent Geom=AllCheck Guess=Read
 ----------------------------------------------------------------------

 Structure from the checkpoint file:  "QNGVNLMMEQUVQK-UHFFFAOYSA-N_conf_4_1.chk"
 ----------------------------------
 QNGVNLMMEQUVQK-UHFFFAOYSA-N_conf_4
 ----------------------------------
 Charge =  0 Multiplicity = 1

 SCF Done:  E(RB3LYP) =  -500.229002475     A.U. after    1 cycles

      1  N    Isotropic =   206.6905   Anisotropy =    74.4206

      2  C    Isotropic =    60.8287   Anisotropy =   145.6886

      3  C    Isotropic =    80.9701   Anisotropy =   130.8675

      4  C    Isotropic =    86.3245   Anisotropy =   136.0669

      5  C    Isotropic =    58.0071   Anisotropy =   140.2336

      6  N    Isotropic =   186.7964   Anisotropy =    40.2152

      7  C    Isotropic =   147.6842   Anisotropy =    44.6160

      8  C    Isotropic =   179.2804   Anisotropy =    19.3968

      9  C    Isotropic =   147.7190   Anisotropy =    44.5476

     10  C    Isotropic =   179.3189   Anisotropy =    19.3487

     11  C    Isotropic =    86.3296   Anisotropy =   136.0305

     12  C    Isotropic =    80.9769   Anisotropy =   130.5564

     13  H    Isotropic =    29.1706   Anisotropy =    12.2453

     14  H    Isotropic =    29.1384   Anisotropy =    12.2690

     15  H    Isotropic =    25.2149   Anisotropy =     5.9642

     16  H    Isotropic =    25.2495   Anisotropy =     9.1525

     17  H    Isotropic =    28.4046   Anisotropy =     6.0005

     18  H    Isotropic =    28.5271   Anisotropy =     6.9813

     19  H    Isotropic =    30.4369   Anisotropy =     6.9914

     20  H    Isotropic =    30.6379   Anisotropy =     7.9394

     21  H    Isotropic =    31.0394   Anisotropy =    11.1486

     22  H    Isotropic =    28.4114   Anisotropy =     6.0114

     23  H    Isotropic =    28.5361   Anisotropy =     6.9527

     24  H    Isotropic =    30.6265   Anisotropy =     7.9792

     25  H    Isotropic =    30.4191   Anisotropy =     6.9527

     26  H    Isotropic =    31.0385   Anisotropy =    11.1556

     27  H    Isotropic =    25.2476   Anisotropy =     9.1547

     28  H    Isotropic =    25.2191   Anisotropy =     5.9462

  Exact polarizability: 229.077   0.278 164.931   0.956 -19.809  91.860
 Approx polarizability: 251.168  -0.145 192.217  -0.424 -27.088 107.129

                      1                      2                      3
                      A                      A                      A
 Frequencies --     36.0990                53.0533                93.4736
 Red. masses --      3.7510                 3.0728                 2.6985
 Frc consts  --      0.0029                 0.0051                 0.0139
 IR Inten    --      3.8600                 0.5691                 0.2201

                      4                      5                      6
                      A                      A                      A
 Frequencies --    109.6369               135.4820               209.7066
 Red. masses --      2.9353                 4.2909                 1.3069
 Frc consts  --      0.0208                 0.0464                 0.0339
 IR Inten    --      0.3813                 1.4361                 0.8147

                      7                      8                      9
                      A                      A                      A
 Frequencies --    224.4190               228.4585               267.2600
 Red. masses --      1.0218                 1.0498                 1.9605
 Frc consts  --      0.0303                 0.0323                 0.0825
 IR Inten    --      0.3827                40.5467                 3.2734

                     10                     11                     12
                      A                      A                      A
 Frequencies --    308.8289               331.2732               381.1979
 Red. masses --      3.0920                 3.7540                 3.2270
 Frc consts  --      0.1738                 0.2427                 0.2763
 IR Inten    --      0.0123                 6.4160                 4.5039

                     13                     14                     15
                      A                      A                      A
 Frequencies --    381.7116               423.3677               425.8128
 Red. masses --      2.9571                 3.2833                 3.3049
 Frc consts  --      0.2539                 0.3467                 0.3531
 IR Inten    --      4.1819                12.8149                 0.9053

                     16                     17                     18
                      A                      A                      A
 Frequencies --    514.1619               521.0057               532.6284
 Red. masses --      2.6556                 2.3246                 2.6636
 Frc consts  --      0.4136                 0.3718                 0.4452
 IR Inten    --      2.0859                34.0268                 4.8079

                     19                     20                     21
                      A                      A                      A
 Frequencies --    657.5483               669.8934               700.2166
 Red. masses --      6.8148                 3.0733                 2.6827
 Frc consts  --      1.7360                 0.8126                 0.7750
 IR Inten    --      0.3656               236.7434                76.7625

                     22                     23                     24
                      A                      A                      A
 Frequencies --    736.2593               792.2853               792.9775
 Red. masses --      2.0370                 1.2119                 1.1368
 Frc consts  --      0.6506                 0.4482                 0.4212
 IR Inten    --    302.7035                10.7697                 5.7838

                     25                     26                     27
                      A                      A                      A
 Frequencies --    808.4326               820.7054               844.3439
 Red. masses --      1.2635                 1.8677                 3.0475
 Frc consts  --      0.4865                 0.7412                 1.2801
 IR Inten    --      0.3567               104.9577                39.3460

                     28                     29                     30
                      A                      A                      A
 Frequencies --    909.3941               920.8829               929.7201
 Red. masses --      2.3741                 1.3124                 2.0590
 Frc consts  --      1.1568                 0.6557                 1.0486
 IR Inten    --      0.1545                 2.3128                 3.7922

                     31                     32                     33
                      A                      A                      A
 Frequencies --    930.5710              1015.9080              1025.1644
 Red. masses --      1.3144                 3.2968                 2.4934
 Frc consts  --      0.6706                 2.0047                 1.5439
 IR Inten    --      0.3360                15.5445                17.5103

                     34                     35                     36
                      A                      A                      A
 Frequencies --   1088.4781              1100.7601              1107.4216
 Red. masses --      1.9844                 1.7709                 1.4985
 Frc consts  --      1.3852                 1.2643                 1.0828
 IR Inten    --     19.1586                19.0000                 0.1847

                     37                     38                     39
                      A                      A                      A
 Frequencies --   1116.3048              1166.6592              1181.9842
 Red. masses --      1.6784                 1.2352                 2.0207
 Frc consts  --      1.2323                 0.9906                 1.6633
 IR Inten    --     29.5306                12.1564                55.6376

                     40                     41                     42
                      A                      A                      A
 Frequencies --   1220.7268              1230.4935              1294.1543
 Red. masses --      1.1139                 2.5949                 1.9685
 Frc consts  --      0.9780                 2.3149                 1.9425
 IR Inten    --      0.4192               110.2127               294.5239

                     43                     44                     45
                      A                      A                      A
 Frequencies --   1301.5945              1317.8591              1357.5641
 Red. masses --      2.2288                 1.5061                 2.0976
 Frc consts  --      2.2247                 1.5411                 2.2777
 IR Inten    --      5.2980                20.8813                13.1541

                     46                     47                     48
                      A                      A                      A
 Frequencies --   1371.1367              1388.9417              1403.2956
 Red. masses --      1.5559                 1.3180                 1.3191
 Frc consts  --      1.7235                 1.4980                 1.5304
 IR Inten    --     10.8458                40.6362               105.0386

                     49                     50                     51
                      A                      A                      A
 Frequencies --   1415.2840              1416.6085              1435.4068
 Red. masses --      1.2907                 1.2540                 1.8139
 Frc consts  --      1.5232                 1.4826                 2.2020
 IR Inten    --     39.6238                30.8407                77.1846

                     52                     53                     54
                      A                      A                      A
 Frequencies --   1482.5741              1494.1306              1496.8801
 Red. masses --      2.4520                 1.0678                 1.1023
 Frc consts  --      3.1754                 1.4045                 1.4553
 IR Inten    --     15.3004                 0.2493                 1.7903

                     55                     56                     57
                      A                      A                      A
 Frequencies --   1497.2570              1502.4314              1514.3715
 Red. masses --      1.0445                 1.0578                 1.0962
 Frc consts  --      1.3796                 1.4068                 1.4811
 IR Inten    --      3.1408                11.2413                13.5892

                     58                     59                     60
                      A                      A                      A
 Frequencies --   1526.2485              1559.4050              1617.8098
 Red. masses --      1.1212                 2.4712                 5.8877
 Frc consts  --      1.5388                 3.5405                 9.0792
 IR Inten    --      7.7555               579.7592                 4.0639

                     61                     62                     63
                      A                      A                      A
 Frequencies --   1655.1360              1681.6173              3039.3628
 Red. masses --      1.1360                 5.5665                 1.0584
 Frc consts  --      1.8335                 9.2744                 5.7604
 IR Inten    --     84.2092                 6.6407                79.6493

                     64                     65                     66
                      A                      A                      A
 Frequencies --   3042.8695              3042.9524              3049.0191
 Red. masses --      1.0358                 1.0370                 1.0609
 Frc consts  --      5.6508                 5.6575                 5.8110
 IR Inten    --     13.5844                68.2213                45.3725

                     67                     68                     69
                      A                      A                      A
 Frequencies --   3079.4142              3083.7621              3112.9187
 Red. masses --      1.1044                 1.1040                 1.1024
 Frc consts  --      6.1706                 6.1854                 6.2941
 IR Inten    --     14.6863                28.3707               121.9958

                     70                     71                     72
                      A                      A                      A
 Frequencies --   3113.1119              3123.4435              3124.0743
 Red. masses --      1.1024                 1.1035                 1.1033
 Frc consts  --      6.2949                 6.3429                 6.3446
 IR Inten    --      4.9837                 8.5383               127.3747

                     73                     74                     75
                      A                      A                      A
 Frequencies --   3168.5919              3169.6992              3218.8095
 Red. masses --      1.0896                 1.0889                 1.0904
 Frc consts  --      6.4453                 6.4459                 6.6564
 IR Inten    --     30.8138                45.4665                35.5280

                     76                     77                     78
                      A                      A                      A
 Frequencies --   3220.0261              3535.0505              3629.8825
 Red. masses --      1.0905                 1.0493                 1.0960
 Frc consts  --      6.6619                 7.7256                 8.5083
 IR Inten    --     12.9233                 9.7323                11.7548

 - Thermochemistry -
 -------------------
 Temperature   298.150 Kelvin.  Pressure   1.00000 Atm.
 Atom     1 has atomic number  7 and mass  14.00307

 Molecular mass:   164.13135 amu.
 Principal axes and moments of inertia in atomic units:
                           1         2         3
     Eigenvalues --  1099.795833269.268284140.92505
           X            0.99999   0.00138   0.00327
           Y           -0.00139   1.00000   0.00161
           Z           -0.00327  -0.00162   0.99999
 This molecule is an asymmetric top.
 Rotational symmetry number  1.
 Warning -- assumption of classical behavior for rotation
           may cause significant error
 Rotational temperatures (Kelvin)      0.07875     0.02649     0.02092
 Rotational constants (GHZ):           1.64098     0.55203     0.43583
 Zero-point vibrational energy     648539.9 (Joules/Mol)
                                  155.00475 (Kcal/Mol)
 Warning -- explicit consideration of  18 degrees of freedom as
           vibrations may cause significant error
 Vibrational temperatures:     51.94    76.33   134.49   157.74   194.93
          (Kelvin)            301.72   322.89   328.70   384.53   444.34
                              476.63   548.46   549.20   609.13   612.65
                              739.76   749.61   766.33   946.07   963.83
                             1007.46  1059.31  1139.92  1140.92  1163.15
                             1180.81  1214.82  1308.42  1324.95  1337.66
                             1338.88  1461.67  1474.98  1566.08  1583.75
                             1593.33  1606.11  1678.56  1700.61  1756.35
                             1770.41  1862.00  1872.70  1896.11  1953.23
                             1972.76  1998.38  2019.03  2036.28  2038.18
                             2065.23  2133.09  2149.72  2153.68  2154.22
                             2161.66  2178.84  2195.93  2243.64  2327.67
                             2381.37  2419.47  4372.97  4378.01  4378.13
                             4386.86  4430.59  4436.85  4478.80  4479.07
                             4493.94  4494.85  4558.90  4560.49  4631.15
                             4632.90  5086.15  5222.59

 Zero-point correction=                           0.247016 (Hartree/Particle)
 Thermal correction to Energy=                    0.259775
 Thermal correction to Enthalpy=                  0.260719
 Thermal correction to Gibbs Free Energy=         0.207707
 Sum of electronic and zero-point Energies=           -499.981987
 Sum of electronic and thermal Energies=              -499.969228
 Sum of electronic and thermal Enthalpies=            -499.968284
 Sum of electronic and thermal Free Energies=         -500.021296

                     E (Thermal)             CV                S
                      KCal/Mol        Cal/Mol-Kelvin    Cal/Mol-Kelvin
 Total                  163.011             48.591            111.573
 Electronic               0.000              0.000              0.000
 Translational            0.889              2.981             41.195
 Rotational               0.889              2.981             31.077
 Vibrational            161.234             42.629             39.302
 Vibration     1          0.594              1.982              5.462
 Vibration     2          0.596              1.976              4.700
 Vibration     3          0.602              1.954              3.586
 Vibration     4          0.606              1.941              3.275
 Vibration     5          0.613              1.918              2.867
 Vibration     6          0.642              1.826              2.046
 Vibration     7          0.649              1.804              1.923
 Vibration     8          0.651              1.798              1.891
 Vibration     9          0.672              1.733              1.614
 Vibration    10          0.698              1.657              1.369
 Vibration    11          0.714              1.613              1.254
 Vibration    12          0.751              1.510              1.034
 Vibration    13          0.751              1.509              1.032
 Vibration    14          0.786              1.419              0.881
 Vibration    15          0.788              1.414              0.872
 Vibration    16          0.869              1.219              0.624
 Vibration    17          0.876              1.203              0.608
 Vibration    18          0.888              1.178              0.581

 Optimization completed.
    -- Stationary point found.
 Normal termination of Gaussian 16 at Thu Jul 11 19:29:16 2024.
 Gaussian 16:  EM64L-G16RevA.03 25-Dec-2016

 ----------------------------------------------------------------------
 # TD(NStates=10, Root=1) B3LYP/6-31G** SCRF=(Solvent=water) volume pop
 =NPA density=current Geom=AllCheck Guess=Read
 ----------------------------------------------------------------------

 Structure from the checkpoint file:  "QNGVNLMMEQUVQK-UHFFFAOYSA-N_conf_4_2.chk"
 ----------------------------------
 QNGVNLMMEQUVQK-UHFFFAOYSA-N_conf_4
 ----------------------------------
 Charge =  0 Multiplicity = 1

                         Standard orientation:
 ---------------------------------------------------------------------
 Center     Atomic      Atomic             Coordinates (Angstroms)
 Number     Number       Type             X           Y           Z
 ---------------------------------------------------------------------
      1          7           0        4.200121   -0.024379   -0.080456
      2          6           0        2.789512   -0.002962   -0.008116
      3          6           0        2.057635   -1.151259    0.324948
      4          6           0        0.663880   -1.155802    0.325191
      5          6           0       -0.083233   -0.000891   -0.002332
      6          7           0       -1.477741    0.000801    0.002184
      7          6           0       -2.241874    1.144414   -0.483567
      8          6           0       -2.525529    2.211719    0.582711
      9          6           0       -2.241937   -1.142237    0.489046
     10          6           0       -2.529323   -2.208669   -0.577143
     11          6           0        0.664216    1.153309   -0.331544
     12          6           0        2.057978    1.146518   -0.337523
     13          1           0        4.615229    0.886186    0.083255
     14          1           0        4.615893   -0.694922    0.556498
     15          1           0        2.585493   -2.067180    0.581195
     16          1           0        0.160409   -2.081573    0.576300
     17          1           0       -1.723677    1.592764   -1.338230
     18          1           0       -3.191515    0.766161   -0.877807
     19          1           0       -1.597587    2.630669    0.983060
     20          1           0       -3.090711    1.785662    1.418127
     21          1           0       -3.115282    3.031273    0.157796
     22          1           0       -1.722357   -1.591700    1.342297
     23          1           0       -3.190133   -0.763065    0.885808
     24          1           0       -3.096321   -1.781605   -1.410811
     25          1           0       -1.602753   -2.628111   -0.980112
     26          1           0       -3.118655   -3.027965   -0.151142
     27          1           0        0.161122    2.082078   -0.572104
     28          1           0        2.586241    2.061530   -0.596243
 ---------------------------------------------------------------------

 SCF Done:  E(RB3LYP) =  -500.229002475     A.U. after    1 cycles

 Excitation energies and oscillator strengths:

 Excited State   1:      Singlet-A      3.9131 eV  316.85 nm  f=0.0896  <S**2>=0.000
      45 -> 46         0.69810
 This state for optimization and/or second-order correction.
 Total Energy, E(TD-HF/TD-DFT) =  -500.085199307
 Copying the excited state density for this state as the 1-particle RhoCI density.

 Excited State   2:      Singlet-A      4.9794 eV  248.99 nm  f=0.7249  <S**2>=0.000
      45 -> 47         0.69729

 Excited State   3:      Singlet-A      5.8617 eV  211.51 nm  f=0.0071  <S**2>=0.000
      43 -> 46         0.45612
      44 -> 46         0.52388

 Excited State   4:      Singlet-A      5.9174 eV  209.53 nm  f=0.0137  <S**2>=0.000
      45 -> 48         0.69903

 Excited State   5:      Singlet-A      6.2560 eV  198.18 nm  f=0.0024  <S**2>=0.000
      45 -> 49         0.69323

 Excited State   6:      Singlet-A      6.4215 eV  193.08 nm  f=0.6484  <S**2>=0.000
      43 -> 46         0.50925
      44 -> 46        -0.44429

 Excited State   7:      Singlet-A      6.7207 eV  184.48 nm  f=0.0033  <S**2>=0.000
      45 -> 50         0.44806
      45 -> 51         0.53578

 Excited State   8:      Singlet-A      6.7898 eV  182.60 nm  f=0.0491  <S**2>=0.000
      45 -> 50         0.51365
      45 -> 51        -0.44150
      45 -> 52        -0.11338

 Excited State   9:      Singlet-A      6.8542 eV  180.89 nm  f=0.2435  <S**2>=0.000
      42 -> 46         0.21009
      43 -> 47         0.48457
      44 -> 47        -0.41888
      45 -> 46        -0.10053
      45 -> 50         0.11054

 Excited State  10:      Singlet-A      6.9534 eV  178.31 nm  f=0.0624  <S**2>=0.000
      43 -> 47         0.44848
      44 -> 47         0.52255

 The electronic state is 1-A.
 Alpha  occ. eigenvalues --  -14.33761 -14.32710 -10.21743 -10.21299 -10.21297
 Alpha  occ. eigenvalues --  -10.21075 -10.17788 -10.17786 -10.17660 -10.17658
 Alpha  occ. eigenvalues --  -10.17294 -10.17291  -0.93497  -0.90147  -0.82131
 Alpha  occ. eigenvalues --   -0.76400  -0.74135  -0.73304  -0.69339  -0.63630
 Alpha  occ. eigenvalues --   -0.61551  -0.59905  -0.55902  -0.51885  -0.49941
 Alpha  occ. eigenvalues --   -0.48490  -0.46544  -0.45078  -0.43549  -0.42047
 Alpha  occ. eigenvalues --   -0.41354  -0.40351  -0.39988  -0.39448  -0.37790
 Alpha  occ. eigenvalues --   -0.36901  -0.36486  -0.36341  -0.34289  -0.34200
 Alpha  occ. eigenvalues --   -0.32288  -0.31340  -0.24321  -0.24314  -0.16427
 Alpha virt. eigenvalues --    0.00335   0.03567   0.08428   0.09761   0.11446
 Alpha virt. eigenvalues --    0.11617   0.13628   0.14302   0.14950   0.16113
 Alpha virt. eigenvalues --    0.16193   0.16624   0.16949   0.17975   0.18279

 Mulliken charges:
               1
     1  N   -0.635411
     2  C    0.259468
     3  C   -0.203148
     4  C   -0.195762
     5  C    0.321530
     6  N   -0.437002
     7  C   -0.072018
     8  C   -0.318984
     9  C   -0.072057
    10  C   -0.318837
    11  C   -0.195975
    12  C   -0.203220
    13  H    0.282993
    14  H    0.282740
    15  H    0.053406
    16  H    0.065272
    17  H    0.134013
    18  H    0.134526
    19  H    0.120476
    20  H    0.121165
    21  H    0.123892
    22  H    0.134131
    23  H    0.134476
    24  H    0.121146
    25  H    0.120371
    26  H    0.123785
    27  H    0.065567
    28  H    0.053457
 Sum of Mulliken charges =   0.00000

 Dipole moment (field-independent basis, Debye):
    X=             -3.5740    Y=              0.4029    Z=              1.3255  Tot=              3.8331
 Quadrupole moment (field-independent basis, Debye-Ang):
   XX=            -50.6886   YY=            -69.2554   ZZ=            -76.9873
   XY=              1.8606   XZ=              6.1901   YZ=             -2.4896

 Summary of Natural Population Analysis:

                                       Natural Population
                Natural  -----------------------------------------------
    Atom  No    Charge         Core      Valence    Rydberg      Total
 -----------------------------------------------------------------------
      N    1   -0.79172      1.99951     5.78086    0.01135     7.79172
      C    2    0.19525      1.99893     3.78788    0.01795     5.80475
      C    3   -0.39037      1.99905     4.37168    0.01964     6.39037
      C    4   -0.37531      1.99910     4.35683    0.01938     6.37531
      C    5    0.16689      1.99900     3.81453    0.01959     5.83311
      N    6   -0.28936      1.99933     5.27751    0.01252     7.28936
      C    7   -0.27738      1.99934     4.26282    0.01522     6.27738
      C    8   -0.69847      1.99944     4.69218    0.00685     6.69847
      C    9   -0.27728      1.99934     4.26271    0.01524     6.27728
      C   10   -0.69845      1.99944     4.69216    0.00684     6.69845
      C   11   -0.37552      1.99910     4.35703    0.01939     6.37552
      C   12   -0.38980      1.99905     4.37115    0.01959     6.38980
      H   13    0.41398      0.00000     0.58277    0.00326     0.58602
      H   14    0.41389      0.00000     0.58272    0.00339     0.58611
      H   15    0.22491      0.00000     0.77336    0.00173     0.77509
      H   16    0.22695      0.00000     0.77123    0.00181     0.77305
      H   17    0.25370      0.00000     0.74280    0.00350     0.74630
      H   18    0.25421      0.00000     0.74404    0.00175     0.74579
      H   19    0.23937      0.00000     0.75775    0.00288     0.76063
      H   20    0.23841      0.00000     0.76015    0.00144     0.76159
      H   21    0.24930      0.00000     0.74933    0.00136     0.75070
      H   22    0.25371      0.00000     0.74285    0.00344     0.74629
      H   23    0.25421      0.00000     0.74404    0.00176     0.74579
      H   24    0.23837      0.00000     0.76018    0.00144     0.76163
      H   25    0.23935      0.00000     0.75771    0.00293     0.76065
      H   26    0.24923      0.00000     0.74941    0.00137     0.75077
      H   27    0.22707      0.00000     0.77114    0.00179     0.77293
      H   28    0.22485      0.00000     0.77344    0.00171     0.77515
 =======================================================================
   * Total *   -0.00000     23.99063    65.79026    0.21912    90.00000

 Normal termination of Gaussian 16 at Thu Jul 11 20:05:10 2024.
