 Gaussian 16, Revision A.03,

 -------------------------------------------------------
 # opt=CalcFc B3LYP/6-31G** SCRF=(Solvent=water) scf=xqc
 -------------------------------------------------------

 ----------------------------------
 QNGVNLMMEQUVQK-UHFFFAOYSA-N_conf_2
 ----------------------------------
 Symbolic Z-matrix:
 Charge =  0 Multiplicity = 1

 SCF Done:  E(RB3LYP) =  -500.223035153     A.U. after   12 cycles
 SCF Done:  E(RB3LYP) =  -500.226811325     A.U. after   10 cycles
 SCF Done:  E(RB3LYP) =  -500.226984320     A.U. after   10 cycles
 SCF Done:  E(RB3LYP) =  -500.226983708     A.U. after    9 cycles
 SCF Done:  E(RB3LYP) =  -500.226999606     A.U. after    8 cycles
 SCF Done:  E(RB3LYP) =  -500.227000343     A.U. after    7 cycles
 SCF Done:  E(RB3LYP) =  -500.227000416     A.U. after    6 cycles
 Optimization completed.
    -- Stationary point found.
 Normal termination of Gaussian 16 at Thu Jul 11 21:18:19 2024.

 ----------------------------------------------------------------------
 # freq B3LYP/6-31G** SCRF=(Solvent=water) volume NMR pop=NPA density=c
 urrent Geom=AllCheck Guess=Read
 ----------------------------------------------------------------------

 Structure from the checkpoint file:  "QNGVNLMMEQUVQK-UHFFFAOYSA-N_conf_2_1.chk"
 ----------------------------------
 QNGVNLMMEQUVQK-UHFFFAOYSA-N_conf_2
 ----------------------------------
 Charge =  0 Multiplicity = 1

 SCF Done:  E(RB3LYP) =  -500.227000416     A.U. after    1 cycles

      1  N    Isotropic =   203.6627   Anisotropy =    74.5521

      2  C    Isotropic =    56.7988   Anisotropy =   151.8316

      3  C    Isotropic =    82.7864   Anisotropy =   128.1825

      4  C    Isotropic =    78.2601   Anisotropy =   153.5822

      5  C    Isotropic =    53.3159   Anisotropy =   140.0023

      6  N    Isotropic =   191.8508   Anisotropy =    62.8877

      7  C    Isotropic =   149.5104   Anisotropy =    34.4519

      8  C    Isotropic =   177.5523   Anisotropy =    20.7934

      9  C    Isotropic =   146.4884   Anisotropy =    46.0728

     10  C    Isotropic =   183.7110   Anisotropy =    13.0909

     11  C    Isotropic =    74.7886   Anisotropy =   148.1612

     12  C    Isotropic =    81.6003   Anisotropy =   130.1266

     13  H    Isotropic =    28.9172   Anisotropy =    12.2196

     14  H    Isotropic =    28.9073   Anisotropy =    12.2768

     15  H    Isotropic =    25.2379   Anisotropy =     5.8899

     16  H    Isotropic =    25.0913   Anisotropy =     9.3634

     17  H    Isotropic =    29.0992   Anisotropy =     6.3862

     18  H    Isotropic =    28.4492   Anisotropy =     6.5187

     19  H    Isotropic =    30.7749   Anisotropy =     8.9835

     20  H    Isotropic =    30.2731   Anisotropy =     7.1824

     21  H    Isotropic =    30.6273   Anisotropy =    10.4869

     22  H    Isotropic =    28.2849   Anisotropy =     7.6073

     23  H    Isotropic =    28.3950   Anisotropy =     6.3238

     24  H    Isotropic =    31.3501   Anisotropy =    11.3891

     25  H    Isotropic =    30.4367   Anisotropy =     7.4814

     26  H    Isotropic =    31.0525   Anisotropy =     5.9461

     27  H    Isotropic =    24.7198   Anisotropy =     8.9458

     28  H    Isotropic =    25.1535   Anisotropy =     5.5869

  Exact polarizability: 223.348  -0.465 141.623  -2.807 -31.877 113.462
 Approx polarizability: 242.078  -1.327 165.404  -6.953 -43.151 135.105

                      1                      2                      3
                      A                      A                      A
 Frequencies --     43.0464                62.9456                74.0609
 Red. masses --      3.2879                 3.0391                 2.6810
 Frc consts  --      0.0036                 0.0071                 0.0087
 IR Inten    --      3.7732                 1.7201                 2.1581

                      4                      5                      6
                      A                      A                      A
 Frequencies --    135.2130               167.9348               193.5712
 Red. masses --      2.6948                 2.0744                 2.0984
 Frc consts  --      0.0290                 0.0345                 0.0463
 IR Inten    --      1.3763                 4.3737                 0.4906

                      7                      8                      9
                      A                      A                      A
 Frequencies --    236.1114               271.1246               284.6629
 Red. masses --      1.1388                 1.0425                 1.5963
 Frc consts  --      0.0374                 0.0452                 0.0762
 IR Inten    --      0.1418                38.9573                 0.4729

                     10                     11                     12
                      A                      A                      A
 Frequencies --    323.5882               335.4087               341.9654
 Red. masses --      3.2233                 3.0255                 3.1570
 Frc consts  --      0.1989                 0.2005                 0.2175
 IR Inten    --      0.9350                 1.0216                 4.7334

                     13                     14                     15
                      A                      A                      A
 Frequencies --    393.2729               421.9410               456.0648
 Red. masses --      2.8444                 3.2033                 2.8892
 Frc consts  --      0.2592                 0.3360                 0.3541
 IR Inten    --      0.1825                 3.5371                 6.6723

                     16                     17                     18
                      A                      A                      A
 Frequencies --    478.4216               538.2618               556.4677
 Red. masses --      3.2118                 3.4929                 2.3949
 Frc consts  --      0.4331                 0.5962                 0.4369
 IR Inten    --     59.8522                11.6476                22.1407

                     19                     20                     21
                      A                      A                      A
 Frequencies --    655.5177               659.9380               700.5738
 Red. masses --      4.3866                 2.1098                 2.4758
 Frc consts  --      1.1106                 0.5414                 0.7159
 IR Inten    --     91.2817               400.2777                40.5132

                     22                     23                     24
                      A                      A                      A
 Frequencies --    732.6874               784.0691               814.0683
 Red. masses --      3.5718                 1.1835                 1.2705
 Frc consts  --      1.1297                 0.4287                 0.4961
 IR Inten    --     61.4265                17.2404                10.6802

                     25                     26                     27
                      A                      A                      A
 Frequencies --    828.0792               832.1233               847.5260
 Red. masses --      1.2241                 2.1291                 2.5282
 Frc consts  --      0.4946                 0.8686                 1.0700
 IR Inten    --     13.1361                32.7313                54.5507

                     28                     29                     30
                      A                      A                      A
 Frequencies --    902.2156               929.2238               939.9408
 Red. masses --      2.6296                 1.4524                 1.7322
 Frc consts  --      1.2611                 0.7389                 0.9017
 IR Inten    --      5.3180                 1.9236                 2.9904

                     31                     32                     33
                      A                      A                      A
 Frequencies --    945.7647              1019.9043              1023.6901
 Red. masses --      1.3051                 2.4462                 2.5386
 Frc consts  --      0.6878                 1.4992                 1.5674
 IR Inten    --      0.1900                27.8264                 4.2605

                     34                     35                     36
                      A                      A                      A
 Frequencies --   1072.6783              1094.6785              1100.9599
 Red. masses --      2.3134                 1.8584                 1.4923
 Frc consts  --      1.5683                 1.3121                 1.0657
 IR Inten    --     20.5739                33.1703                 2.5118

                     37                     38                     39
                      A                      A                      A
 Frequencies --   1140.7597              1161.4955              1169.5474
 Red. masses --      1.7201                 1.2139                 1.9381
 Frc consts  --      1.3188                 0.9649                 1.5619
 IR Inten    --     16.5347                17.9702                65.2735

                     40                     41                     42
                      A                      A                      A
 Frequencies --   1208.6806              1213.6892              1276.9162
 Red. masses --      2.0855                 1.3635                 1.9516
 Frc consts  --      1.7951                 1.1834                 1.8749
 IR Inten    --     63.1221                32.7357               163.1597

                     43                     44                     45
                      A                      A                      A
 Frequencies --   1302.9718              1322.3884              1341.6326
 Red. masses --      3.1629                 1.2732                 2.1997
 Frc consts  --      3.1638                 1.3117                 2.3328
 IR Inten    --    101.9261                19.3648                 5.4370

                     46                     47                     48
                      A                      A                      A
 Frequencies --   1365.3331              1379.8300              1389.3166
 Red. masses --      1.7069                 1.4185                 1.3361
 Frc consts  --      1.8747                 1.5913                 1.5195
 IR Inten    --     10.2334                10.8505                12.3080

                     49                     50                     51
                      A                      A                      A
 Frequencies --   1408.7871              1412.3676              1427.3697
 Red. masses --      1.2574                 1.2749                 1.4327
 Frc consts  --      1.4703                 1.4984                 1.7198
 IR Inten    --     11.4055                25.6650                53.5910

                     52                     53                     54
                      A                      A                      A
 Frequencies --   1477.7036              1489.8720              1494.7009
 Red. masses --      2.8846                 1.0510                 1.0603
 Frc consts  --      3.7112                 1.3745                 1.3957
 IR Inten    --      3.4063                 3.6296                13.4599

                     55                     56                     57
                      A                      A                      A
 Frequencies --   1501.2451              1505.7611              1518.9600
 Red. masses --      1.0453                 1.0475                 1.0761
 Frc consts  --      1.3880                 1.3993                 1.4628
 IR Inten    --      2.8996                 4.3552                16.9013

                     58                     59                     60
                      A                      A                      A
 Frequencies --   1528.4103              1553.9809              1621.5727
 Red. masses --      1.1108                 2.3670                 5.9693
 Frc consts  --      1.5289                 3.3677                 9.2480
 IR Inten    --     32.9500               335.4196                 3.6395

                     61                     62                     63
                      A                      A                      A
 Frequencies --   1655.0438              1675.2379              2952.2931
 Red. masses --      1.2029                 4.4785                 1.0727
 Frc consts  --      1.9413                 7.4051                 5.5087
 IR Inten    --     65.6027                27.9294               110.9911

                     64                     65                     66
                      A                      A                      A
 Frequencies --   3044.2413              3048.7925              3074.5745
 Red. masses --      1.0353                 1.0359                 1.0789
 Frc consts  --      5.6528                 5.6731                 6.0092
 IR Inten    --     30.7912                30.8133                50.9582

                     67                     68                     69
                      A                      A                      A
 Frequencies --   3077.9472              3107.3593              3115.1438
 Red. masses --      1.0723                 1.1016                 1.1008
 Frc consts  --      5.9853                 6.2672                 6.2938
 IR Inten    --     36.6099                 0.6366                61.9714

                     70                     71                     72
                      A                      A                      A
 Frequencies --   3120.4084              3123.5432              3128.6381
 Red. masses --      1.1021                 1.1029                 1.1039
 Frc consts  --      6.3227                 6.3400                 6.3663
 IR Inten    --     59.1518                55.3731                85.0547

                     73                     74                     75
                      A                      A                      A
 Frequencies --   3171.7995              3172.1301              3196.7295
 Red. masses --      1.0890                 1.0884                 1.0928
 Frc consts  --      6.4546                 6.4525                 6.5794
 IR Inten    --     18.7587                50.0997                28.0484

                     76                     77                     78
                      A                      A                      A
 Frequencies --   3214.9130              3545.7190              3643.4711
 Red. masses --      1.0912                 1.0490                 1.0969
 Frc consts  --      6.6448                 7.7700                 8.5793
 IR Inten    --     18.3160                18.4195                16.1716

 - Thermochemistry -
 -------------------
 Temperature   298.150 Kelvin.  Pressure   1.00000 Atm.
 Atom     1 has atomic number  7 and mass  14.00307

 Molecular mass:   164.13135 amu.
 Principal axes and moments of inertia in atomic units:
                           1         2         3
     Eigenvalues --   900.322393695.294054030.21661
           X            0.99999  -0.00008   0.00439
           Y            0.00011   0.99998  -0.00663
           Z           -0.00439   0.00663   0.99997
 This molecule is an asymmetric top.
 Rotational symmetry number  1.
 Warning -- assumption of classical behavior for rotation
           may cause significant error
 Rotational temperatures (Kelvin)      0.09620     0.02344     0.02149
 Rotational constants (GHZ):           2.00455     0.48839     0.44780
 Zero-point vibrational energy     648848.4 (Joules/Mol)
                                  155.07849 (Kcal/Mol)
 Warning -- explicit consideration of  18 degrees of freedom as
           vibrations may cause significant error
 Vibrational temperatures:     61.93    90.56   106.56   194.54   241.62
          (Kelvin)            278.51   339.71   390.09   409.57   465.57
                              482.58   492.01   565.83   607.08   656.18
                              688.34   774.44   800.63   943.14   949.50
                             1007.97  1054.17  1128.10  1171.26  1191.42
                             1197.24  1219.40  1298.09  1336.95  1352.37
                             1360.74  1467.41  1472.86  1543.34  1575.00
                             1584.04  1641.30  1671.13  1682.72  1739.02
                             1746.23  1837.20  1874.69  1902.62  1930.31
                             1964.41  1985.27  1998.92  2026.93  2032.08
                             2053.67  2126.09  2143.59  2150.54  2159.96
                             2166.45  2185.44  2199.04  2235.83  2333.08
                             2381.24  2410.29  4247.69  4379.98  4386.53
                             4423.63  4428.48  4470.80  4482.00  4489.57
                             4494.08  4501.41  4563.51  4563.99  4599.38
                             4625.54  5101.50  5242.14

 Zero-point correction=                           0.247133 (Hartree/Particle)
 Thermal correction to Energy=                    0.259695
 Thermal correction to Enthalpy=                  0.260639
 Thermal correction to Gibbs Free Energy=         0.208375
 Sum of electronic and zero-point Energies=           -499.979867
 Sum of electronic and thermal Energies=              -499.967305
 Sum of electronic and thermal Enthalpies=            -499.966361
 Sum of electronic and thermal Free Energies=         -500.018625

                     E (Thermal)             CV                S
                      KCal/Mol        Cal/Mol-Kelvin    Cal/Mol-Kelvin
 Total                  162.961             48.371            109.998
 Electronic               0.000              0.000              0.000
 Translational            0.889              2.981             41.195
 Rotational               0.889              2.981             30.973
 Vibrational            161.184             42.409             37.830
 Vibration     1          0.595              1.980              5.114
 Vibration     2          0.597              1.972              4.363
 Vibration     3          0.599              1.966              4.042
 Vibration     4          0.613              1.918              2.871
 Vibration     5          0.625              1.882              2.458
 Vibration     6          0.635              1.849              2.193
 Vibration     7          0.655              1.785              1.832
 Vibration     8          0.675              1.726              1.589
 Vibration     9          0.683              1.702              1.505
 Vibration    10          0.708              1.628              1.292
 Vibration    11          0.717              1.605              1.234
 Vibration    12          0.721              1.592              1.203
 Vibration    13          0.760              1.485              0.988
 Vibration    14          0.784              1.423              0.885
 Vibration    15          0.814              1.347              0.778
 Vibration    16          0.835              1.298              0.714
 Vibration    17          0.893              1.165              0.569
 Vibration    18          0.912              1.126              0.531

 Optimization completed.
    -- Stationary point found.
 Normal termination of Gaussian 16 at Thu Jul 11 21:38:38 2024.
 Gaussian 16:  EM64L-G16RevA.03 25-Dec-2016

 ----------------------------------------------------------------------
 # TD(NStates=10, Root=1) B3LYP/6-31G** SCRF=(Solvent=water) volume pop
 =NPA density=current Geom=AllCheck Guess=Read
 ----------------------------------------------------------------------

 Structure from the checkpoint file:  "QNGVNLMMEQUVQK-UHFFFAOYSA-N_conf_2_2.chk"
 ----------------------------------
 QNGVNLMMEQUVQK-UHFFFAOYSA-N_conf_2
 ----------------------------------
 Charge =  0 Multiplicity = 1

                         Standard orientation:
 ---------------------------------------------------------------------
 Center     Atomic      Atomic             Coordinates (Angstroms)
 Number     Number       Type             X           Y           Z
 ---------------------------------------------------------------------
      1          7           0       -4.244603   -0.090815    0.205798
      2          6           0       -2.850757   -0.102851    0.026263
      3          6           0       -2.038292   -1.040570    0.676902
      4          6           0       -0.646832   -1.000225    0.558943
      5          6           0       -0.004158   -0.034658   -0.235535
      6          7           0        1.404491    0.005256   -0.432024
      7          6           0        2.151538   -1.188016   -0.022669
      8          6           0        3.556923   -1.258717   -0.622709
      9          6           0        2.054657    1.292655   -0.126391
     10          6           0        2.196398    1.615627    1.367886
     11          6           0       -0.830678    0.895493   -0.898310
     12          6           0       -2.213989    0.871223   -0.763919
     13          1           0       -4.631596   -0.998473    0.435730
     14          1           0       -4.750532    0.310286   -0.575174
     15          1           0       -2.496285   -1.807298    1.297376
     16          1           0       -0.066278   -1.737193    1.101811
     17          1           0        1.582520   -2.054573   -0.373776
     18          1           0        2.223064   -1.288953    1.074655
     19          1           0        3.523670   -1.127644   -1.708967
     20          1           0        4.231337   -0.505021   -0.206428
     21          1           0        3.993084   -2.239326   -0.408572
     22          1           0        1.482015    2.085287   -0.613119
     23          1           0        3.039350    1.299911   -0.602547
     24          1           0        2.651754    2.602998    1.498505
     25          1           0        2.829666    0.887514    1.884533
     26          1           0        1.218636    1.624785    1.860243
     27          1           0       -0.383769    1.639841   -1.550136
     28          1           0       -2.814716    1.607010   -1.293318
 ---------------------------------------------------------------------

 SCF Done:  E(RB3LYP) =  -500.227000416     A.U. after    1 cycles

 Excitation energies and oscillator strengths:

 Excited State   1:      Singlet-A      4.1271 eV  300.42 nm  f=0.0775  <S**2>=0.000
      43 -> 47        -0.12710
      45 -> 46         0.69466
 This state for optimization and/or second-order correction.
 Total Energy, E(TD-HF/TD-DFT) =  -500.075332464
 Copying the excited state density for this state as the 1-particle RhoCI density.

 Excited State   2:      Singlet-A      4.9230 eV  251.85 nm  f=0.5844  <S**2>=0.000
      45 -> 47         0.69311

 Excited State   3:      Singlet-A      5.6455 eV  219.61 nm  f=0.0333  <S**2>=0.000
      43 -> 47         0.13353
      44 -> 46         0.68488

 Excited State   4:      Singlet-A      6.3267 eV  195.97 nm  f=0.1073  <S**2>=0.000
      43 -> 46        -0.45582
      44 -> 47         0.46524
      45 -> 48        -0.23964

 Excited State   5:      Singlet-A      6.3571 eV  195.03 nm  f=0.0031  <S**2>=0.000
      44 -> 47         0.24805
      45 -> 48         0.63387
      45 -> 49         0.13684

 Excited State   6:      Singlet-A      6.4633 eV  191.83 nm  f=0.0599  <S**2>=0.000
      43 -> 46         0.22786
      45 -> 48        -0.14521
      45 -> 49         0.63599

 Excited State   7:      Singlet-A      6.5946 eV  188.01 nm  f=0.5314  <S**2>=0.000
      43 -> 46         0.42011
      43 -> 47         0.18173
      44 -> 47         0.43717
      45 -> 49        -0.23401

 Excited State   8:      Singlet-A      6.7026 eV  184.98 nm  f=0.3302  <S**2>=0.000
      42 -> 46        -0.19916
      43 -> 46        -0.17437
      43 -> 47         0.61319
      44 -> 46        -0.14007
      45 -> 46         0.10497

 Excited State   9:      Singlet-A      6.8516 eV  180.96 nm  f=0.0155  <S**2>=0.000
      45 -> 50         0.68925

 Excited State  10:      Singlet-A      7.2289 eV  171.51 nm  f=0.0103  <S**2>=0.000
      45 -> 51         0.69798

 The electronic state is 1-A.
 Alpha  occ. eigenvalues --  -14.33113 -14.33098 -10.21816 -10.21093 -10.20776
 Alpha  occ. eigenvalues --  -10.20722 -10.18114 -10.18032 -10.18010 -10.17896
 Alpha  occ. eigenvalues --  -10.17427 -10.17093  -0.92666  -0.90636  -0.82304
 Alpha  occ. eigenvalues --   -0.75702  -0.74072  -0.73664  -0.69193  -0.63991
 Alpha  occ. eigenvalues --   -0.60564  -0.59745  -0.55601  -0.51944  -0.49787
 Alpha  occ. eigenvalues --   -0.48736  -0.47266  -0.44738  -0.43244  -0.42566
 Alpha  occ. eigenvalues --   -0.41334  -0.40818  -0.39408  -0.38938  -0.37647
 Alpha  occ. eigenvalues --   -0.36945  -0.36066  -0.35787  -0.34585  -0.33444
 Alpha  occ. eigenvalues --   -0.32731  -0.30858  -0.24599  -0.23709  -0.17549
 Alpha virt. eigenvalues --    0.00205   0.02499   0.08742   0.09539   0.10983
 Alpha virt. eigenvalues --    0.12381   0.13442   0.14023   0.14472   0.15597
 Alpha virt. eigenvalues --    0.16377   0.16898   0.17147   0.17873   0.18779

 Mulliken charges:
               1
     1  N   -0.630886
     2  C    0.264094
     3  C   -0.209808
     4  C   -0.181630
     5  C    0.283872
     6  N   -0.433016
     7  C   -0.042834
     8  C   -0.347592
     9  C   -0.073006
    10  C   -0.329290
    11  C   -0.197621
    12  C   -0.194603
    13  H    0.285093
    14  H    0.286689
    15  H    0.056424
    16  H    0.067737
    17  H    0.131136
    18  H    0.135558
    19  H    0.124992
    20  H    0.125962
    21  H    0.124571
    22  H    0.134083
    23  H    0.129741
    24  H    0.127749
    25  H    0.124187
    26  H    0.125499
    27  H    0.059389
    28  H    0.053511
 Sum of Mulliken charges =   0.00000

 Dipole moment (field-independent basis, Debye):
    X=              2.7449    Y=             -0.7669    Z=             -0.0464  Tot=              2.8504
 Quadrupole moment (field-independent basis, Debye-Ang):
   XX=            -49.6740   YY=            -70.1654   ZZ=            -76.2433
   XY=              4.0843   XZ=              4.3780   YZ=             -2.2350

 Summary of Natural Population Analysis:

                                       Natural Population
                Natural  -----------------------------------------------
    Atom  No    Charge         Core      Valence    Rydberg      Total
 -----------------------------------------------------------------------
      N    1   -0.78088      1.99950     5.77023    0.01114     7.78088
      C    2    0.19903      1.99895     3.78385    0.01817     5.80097
      C    3   -0.39748      1.99905     4.37861    0.01982     6.39748
      C    4   -0.34753      1.99906     4.33072    0.01775     6.34753
      C    5    0.15102      1.99896     3.83034    0.01968     5.84898
      N    6   -0.29937      1.99934     5.28740    0.01263     7.29937
      C    7   -0.28766      1.99934     4.27413    0.01419     6.28766
      C    8   -0.70361      1.99946     4.69677    0.00738     6.70361
      C    9   -0.27671      1.99932     4.26198    0.01542     6.27671
      C   10   -0.70409      1.99944     4.69752    0.00712     6.70409
      C   11   -0.37797      1.99907     4.35861    0.02029     6.37797
      C   12   -0.38873      1.99905     4.37057    0.01911     6.38873
      H   13    0.41541      0.00000     0.58122    0.00337     0.58459
      H   14    0.41702      0.00000     0.57987    0.00310     0.58298
      H   15    0.22612      0.00000     0.77214    0.00174     0.77388
      H   16    0.23136      0.00000     0.76693    0.00171     0.76864
      H   17    0.25631      0.00000     0.74026    0.00342     0.74369
      H   18    0.24557      0.00000     0.75183    0.00260     0.75443
      H   19    0.24237      0.00000     0.75594    0.00170     0.75763
      H   20    0.23763      0.00000     0.76111    0.00126     0.76237
      H   21    0.25442      0.00000     0.74448    0.00110     0.74558
      H   22    0.25618      0.00000     0.74141    0.00242     0.74382
      H   23    0.24725      0.00000     0.75074    0.00201     0.75275
      H   24    0.25362      0.00000     0.74525    0.00113     0.74638
      H   25    0.23760      0.00000     0.76114    0.00126     0.76240
      H   26    0.24281      0.00000     0.75568    0.00151     0.75719
      H   27    0.22562      0.00000     0.77272    0.00166     0.77438
      H   28    0.22469      0.00000     0.77364    0.00167     0.77531
 =======================================================================
   * Total *    0.00000     23.99054    65.79507    0.21439    90.00000

 Normal termination of Gaussian 16 at Thu Jul 11 22:02:25 2024.
