 Gaussian 16, Revision A.03,

 -------------------------------------------------------
 # opt=CalcFc B3LYP/6-31G** SCRF=(Solvent=water) scf=xqc
 -------------------------------------------------------

 ----------------------------------
 QNGVNLMMEQUVQK-UHFFFAOYSA-N_conf_3
 ----------------------------------
 Symbolic Z-matrix:
 Charge =  0 Multiplicity = 1

 SCF Done:  E(RB3LYP) =  -500.223428128     A.U. after   12 cycles
 SCF Done:  E(RB3LYP) =  -500.226493116     A.U. after   10 cycles
 SCF Done:  E(RB3LYP) =  -500.226651511     A.U. after    9 cycles
 SCF Done:  E(RB3LYP) =  -500.226659035     A.U. after    8 cycles
 SCF Done:  E(RB3LYP) =  -500.226659658     A.U. after    7 cycles
 SCF Done:  E(RB3LYP) =  -500.226659687     A.U. after    6 cycles
 Optimization completed.
    -- Stationary point found.
 Normal termination of Gaussian 16 at Thu Jul 11 18:41:07 2024.

 ----------------------------------------------------------------------
 # freq B3LYP/6-31G** SCRF=(Solvent=water) volume NMR pop=NPA density=c
 urrent Geom=AllCheck Guess=Read
 ----------------------------------------------------------------------

 Structure from the checkpoint file:  "QNGVNLMMEQUVQK-UHFFFAOYSA-N_conf_3_1.chk"
 ----------------------------------
 QNGVNLMMEQUVQK-UHFFFAOYSA-N_conf_3
 ----------------------------------
 Charge =  0 Multiplicity = 1

 SCF Done:  E(RB3LYP) =  -500.226659687     A.U. after    1 cycles

      1  N    Isotropic =   199.9410   Anisotropy =    74.6835

      2  C    Isotropic =    51.1864   Anisotropy =   160.1710

      3  C    Isotropic =    83.4936   Anisotropy =   127.3956

      4  C    Isotropic =    62.9565   Anisotropy =   146.5997

      5  C    Isotropic =    57.2083   Anisotropy =   135.1202

      6  N    Isotropic =   193.0190   Anisotropy =    52.1677

      7  C    Isotropic =   137.9966   Anisotropy =    54.4860

      8  C    Isotropic =   176.5604   Anisotropy =    20.7907

      9  C    Isotropic =   138.0310   Anisotropy =    54.4094

     10  C    Isotropic =   176.5886   Anisotropy =    20.7541

     11  C    Isotropic =    71.4913   Anisotropy =   174.5316

     12  C    Isotropic =    81.3258   Anisotropy =   130.2955

     13  H    Isotropic =    28.5944   Anisotropy =    12.2438

     14  H    Isotropic =    28.5998   Anisotropy =    12.1248

     15  H    Isotropic =    25.1801   Anisotropy =     5.5647

     16  H    Isotropic =    24.7623   Anisotropy =     6.5140

     17  H    Isotropic =    28.7259   Anisotropy =     6.7141

     18  H    Isotropic =    29.0120   Anisotropy =     7.2410

     19  H    Isotropic =    30.9641   Anisotropy =    11.1654

     20  H    Isotropic =    30.8414   Anisotropy =     8.5004

     21  H    Isotropic =    31.0826   Anisotropy =     4.1778

     22  H    Isotropic =    29.0238   Anisotropy =     7.2335

     23  H    Isotropic =    28.7449   Anisotropy =     6.6985

     24  H    Isotropic =    30.8630   Anisotropy =     8.4815

     25  H    Isotropic =    30.9868   Anisotropy =    11.1348

     26  H    Isotropic =    31.1421   Anisotropy =     4.2578

     27  H    Isotropic =    24.2441   Anisotropy =     9.0751

     28  H    Isotropic =    25.0413   Anisotropy =     5.6809

  Exact polarizability: 205.512  -0.477 104.795  -2.029   0.054 158.503
 Approx polarizability: 228.341   0.909 111.079  -0.518   0.146 191.684

                      1                      2                      3
                      A                      A                      A
 Frequencies --     32.2567                65.1045                76.5667
 Red. masses --      3.3820                 3.4395                 2.2692
 Frc consts  --      0.0021                 0.0086                 0.0078
 IR Inten    --      0.7134                 1.6401                 0.0182

                      4                      5                      6
                      A                      A                      A
 Frequencies --    126.5872               160.7310               198.5465
 Red. masses --      1.8789                 2.4507                 2.0766
 Frc consts  --      0.0177                 0.0373                 0.0482
 IR Inten    --      0.3938                 3.2945                 0.3624

                      7                      8                      9
                      A                      A                      A
 Frequencies --    200.0422               256.6036               272.9127
 Red. masses --      2.4411                 1.3987                 1.3075
 Frc consts  --      0.0576                 0.0543                 0.0574
 IR Inten    --      3.7868                 0.4749                 0.6250

                     10                     11                     12
                      A                      A                      A
 Frequencies --    315.1219               353.6431               367.0467
 Red. masses --      1.0387                 3.1175                 3.5384
 Frc consts  --      0.0608                 0.2297                 0.2809
 IR Inten    --     34.2926                 2.7140                 3.5632

                     13                     14                     15
                      A                      A                      A
 Frequencies --    401.5478               428.0705               453.4143
 Red. masses --      3.1270                 3.1537                 4.1829
 Frc consts  --      0.2971                 0.3405                 0.5067
 IR Inten    --      1.6810                 0.3554                 1.7434

                     16                     17                     18
                      A                      A                      A
 Frequencies --    483.5783               509.5883               569.0880
 Red. masses --      2.6930                 3.8050                 2.0302
 Frc consts  --      0.3710                 0.5822                 0.3874
 IR Inten    --     31.0350                12.7842               130.6577

                     19                     20                     21
                      A                      A                      A
 Frequencies --    622.2135               654.0676               698.9567
 Red. masses --      1.5807                 6.2747                 3.2441
 Frc consts  --      0.3606                 1.5816                 0.9338
 IR Inten    --    443.3116                 3.6408                12.7173

                     22                     23                     24
                      A                      A                      A
 Frequencies --    746.8631               805.4024               819.8995
 Red. masses --      4.0532                 1.1297                 1.1923
 Frc consts  --      1.3321                 0.4318                 0.4722
 IR Inten    --     29.5957                 4.4840                 7.0101

                     25                     26                     27
                      A                      A                      A
 Frequencies --    829.3684               840.2909               849.8173
 Red. masses --      1.2639                 2.5808                 2.3499
 Frc consts  --      0.5122                 1.0737                 0.9999
 IR Inten    --      1.3180                12.9983                40.3353

                     28                     29                     30
                      A                      A                      A
 Frequencies --    910.1191               939.4178               959.2551
 Red. masses --      2.0198                 1.8480                 1.4139
 Frc consts  --      0.9857                 0.9609                 0.7666
 IR Inten    --      2.9240                 2.0782                 0.1537

                     31                     32                     33
                      A                      A                      A
 Frequencies --    964.6782              1024.9934              1057.8694
 Red. masses --      1.4508                 2.7143                 3.0104
 Frc consts  --      0.7955                 1.6801                 1.9849
 IR Inten    --      0.1854                 2.6712                15.7433

                     34                     35                     36
                      A                      A                      A
 Frequencies --   1086.9284              1091.7975              1101.6984
 Red. masses --      1.7885                 1.4551                 2.1448
 Frc consts  --      1.2449                 1.0219                 1.5338
 IR Inten    --      4.9031                 5.7866                79.3186

                     37                     38                     39
                      A                      A                      A
 Frequencies --   1138.7342              1150.3855              1175.8511
 Red. masses --      2.1930                 1.1839                 1.7427
 Frc consts  --      1.6755                 0.9231                 1.4197
 IR Inten    --     12.3287                15.4875                14.2912

                     40                     41                     42
                      A                      A                      A
 Frequencies --   1189.7199              1197.6219              1263.5404
 Red. masses --      2.3068                 1.1902                 2.6570
 Frc consts  --      1.9238                 1.0058                 2.4993
 IR Inten    --     18.6172                10.4980                89.4811

                     43                     44                     45
                      A                      A                      A
 Frequencies --   1308.9946              1309.3663              1320.5036
 Red. masses --      1.1366                 2.4800                 2.3789
 Frc consts  --      1.1475                 2.5051                 2.4440
 IR Inten    --      6.7804                85.8067                14.2695

                     46                     47                     48
                      A                      A                      A
 Frequencies --   1343.7626              1361.9314              1376.8421
 Red. masses --      1.2967                 2.3804                 1.3153
 Frc consts  --      1.3795                 2.6014                 1.4690
 IR Inten    --      6.7679                 4.3449                58.8055

                     49                     50                     51
                      A                      A                      A
 Frequencies --   1406.4547              1414.0853              1438.8885
 Red. masses --      1.2370                 1.2779                 1.4519
 Frc consts  --      1.4416                 1.5056                 1.7711
 IR Inten    --      2.3959                24.2711                14.2117

                     52                     53                     54
                      A                      A                      A
 Frequencies --   1471.4818              1492.9594              1493.5012
 Red. masses --      2.8750                 1.0440                 1.0419
 Frc consts  --      3.6677                 1.3711                 1.3692
 IR Inten    --      0.2272                 0.1977                 8.4407

                     55                     56                     57
                      A                      A                      A
 Frequencies --   1497.0439              1502.0510              1517.5332
 Red. masses --      1.0546                 1.0481                 1.0759
 Frc consts  --      1.3925                 1.3932                 1.4599
 IR Inten    --      6.0215                 2.5231                 0.1657

                     58                     59                     60
                      A                      A                      A
 Frequencies --   1526.9509              1553.7188              1622.4570
 Red. masses --      1.1239                 2.4513                 6.0991
 Frc consts  --      1.5440                 3.4864                 9.4593
 IR Inten    --     13.2340               201.7584                 3.4973

                     61                     62                     63
                      A                      A                      A
 Frequencies --   1654.8488              1668.6883              2936.4586
 Red. masses --      1.5143                 2.5787                 1.0721
 Frc consts  --      2.4434                 4.2306                 5.4467
 IR Inten    --     14.7923               161.3837                22.0180

                     64                     65                     66
                      A                      A                      A
 Frequencies --   2942.1613              3046.6885              3047.4112
 Red. masses --      1.0730                 1.0366                 1.0359
 Frc consts  --      5.4724                 5.6692                 5.6679
 IR Inten    --    233.9385                51.0741                15.3037

                     67                     68                     69
                      A                      A                      A
 Frequencies --   3055.3811              3062.0604              3117.9180
 Red. masses --      1.0877                 1.0864                 1.1027
 Frc consts  --      5.9826                 6.0015                 6.3161
 IR Inten    --      0.0025               129.3003                75.4947

                     70                     71                     72
                      A                      A                      A
 Frequencies --   3117.9844              3124.6644              3125.2076
 Red. masses --      1.1028                 1.1024                 1.1021
 Frc consts  --      6.3167                 6.3414                 6.3420
 IR Inten    --     27.8628                 0.8757               131.4934

                     73                     74                     75
                      A                      A                      A
 Frequencies --   3171.2785              3175.6567              3189.5971
 Red. masses --      1.0872                 1.0884                 1.0938
 Frc consts  --      6.4424                 6.4670                 6.5562
 IR Inten    --     28.6231                26.1974                26.9808

                     76                     77                     78
                      A                      A                      A
 Frequencies --   3199.4022              3558.0709              3659.1912
 Red. masses --      1.0937                 1.0486                 1.0980
 Frc consts  --      6.5960                 7.8216                 8.6621
 IR Inten    --     19.3872                30.0059                21.9041

 - Thermochemistry -
 -------------------
 Temperature   298.150 Kelvin.  Pressure   1.00000 Atm.
 Atom     1 has atomic number  7 and mass  14.00307

 Molecular mass:   164.13135 amu.
 Principal axes and moments of inertia in atomic units:
                           1         2         3
     Eigenvalues --  1229.249203069.429533543.71649
           X            0.99999  -0.00494  -0.00223
           Y            0.00494   0.99999  -0.00044
           Z            0.00223   0.00043   1.00000
 This molecule is an asymmetric top.
 Rotational symmetry number  1.
 Warning -- assumption of classical behavior for rotation
           may cause significant error
 Rotational temperatures (Kelvin)      0.07046     0.02822     0.02444
 Rotational constants (GHZ):           1.46817     0.58797     0.50928
 Zero-point vibrational energy     647186.5 (Joules/Mol)
                                  154.68129 (Kcal/Mol)
 Warning -- explicit consideration of  18 degrees of freedom as
           vibrations may cause significant error
 Vibrational temperatures:     46.41    93.67   110.16   182.13   231.26
          (Kelvin)            285.66   287.82   369.20   392.66   453.39
                              508.81   528.10   577.74   615.90   652.36
                              695.76   733.18   818.79   895.23   941.06
                             1005.64  1074.57  1158.79  1179.65  1193.28
                             1208.99  1222.70  1309.46  1351.61  1380.15
                             1387.96  1474.74  1522.04  1563.85  1570.85
                             1585.10  1638.38  1655.15  1691.79  1711.74
                             1723.11  1817.95  1883.35  1883.89  1899.91
                             1933.37  1959.52  1980.97  2023.57  2034.55
                             2070.24  2117.13  2148.04  2148.82  2153.91
                             2161.12  2183.39  2196.94  2235.45  2334.35
                             2380.96  2400.87  4224.91  4233.11  4383.51
                             4384.55  4396.01  4405.62  4485.99  4486.08
                             4495.70  4496.48  4562.76  4569.06  4589.12
                             4603.23  5119.27  5264.76

 Zero-point correction=                           0.246500 (Hartree/Particle)
 Thermal correction to Energy=                    0.259138
 Thermal correction to Enthalpy=                  0.260082
 Thermal correction to Gibbs Free Energy=         0.207396
 Sum of electronic and zero-point Energies=           -499.980159
 Sum of electronic and thermal Energies=              -499.967521
 Sum of electronic and thermal Enthalpies=            -499.966577
 Sum of electronic and thermal Free Energies=         -500.019263

                     E (Thermal)             CV                S
                      KCal/Mol        Cal/Mol-Kelvin    Cal/Mol-Kelvin
 Total                  162.612             48.353            110.887
 Electronic               0.000              0.000              0.000
 Translational            0.889              2.981             41.195
 Rotational               0.889              2.981             30.970
 Vibrational            160.834             42.392             38.722
 Vibration     1          0.594              1.983              5.686
 Vibration     2          0.597              1.971              4.296
 Vibration     3          0.599              1.965              3.977
 Vibration     4          0.611              1.927              2.997
 Vibration     5          0.622              1.891              2.541
 Vibration     6          0.637              1.842              2.147
 Vibration     7          0.638              1.840              2.133
 Vibration     8          0.666              1.752              1.685
 Vibration     9          0.676              1.723              1.578
 Vibration    10          0.702              1.645              1.335
 Vibration    11          0.730              1.568              1.150
 Vibration    12          0.740              1.540              1.092
 Vibration    13          0.767              1.467              0.957
 Vibration    14          0.790              1.409              0.865
 Vibration    15          0.812              1.353              0.786
 Vibration    16          0.840              1.286              0.700
 Vibration    17          0.865              1.229              0.635
 Vibration    18          0.925              1.098              0.506

 Optimization completed.
    -- Stationary point found.
 Normal termination of Gaussian 16 at Thu Jul 11 19:09:29 2024.
 Gaussian 16:  EM64L-G16RevA.03 25-Dec-2016

 ----------------------------------------------------------------------
 # TD(NStates=10, Root=1) B3LYP/6-31G** SCRF=(Solvent=water) volume pop
 =NPA density=current Geom=AllCheck Guess=Read
 ----------------------------------------------------------------------

 Structure from the checkpoint file:  "QNGVNLMMEQUVQK-UHFFFAOYSA-N_conf_3_2.chk"
 ----------------------------------
 QNGVNLMMEQUVQK-UHFFFAOYSA-N_conf_3
 ----------------------------------
 Charge =  0 Multiplicity = 1

                         Standard orientation:
 ---------------------------------------------------------------------
 Center     Atomic      Atomic             Coordinates (Angstroms)
 Number     Number       Type             X           Y           Z
 ---------------------------------------------------------------------
      1          7           0        3.992130    0.081208    0.092682
      2          6           0        2.597570    0.011461    0.040207
      3          6           0        1.919050    0.006869   -1.191237
      4          6           0        0.525871    0.002936   -1.233266
      5          6           0       -0.240157    0.002659   -0.062505
      6          7           0       -1.683621   -0.004399   -0.157158
      7          6           0       -2.307794    1.211892    0.393611
      8          6           0       -1.912256    2.477300   -0.364070
      9          6           0       -2.296042   -1.226330    0.394377
     10          6           0       -1.888075   -2.488506   -0.362114
     11          6           0        0.439624    0.006161    1.165557
     12          6           0        1.831027    0.010381    1.220883
     13          1           0        4.399882   -0.289727    0.941732
     14          1           0        4.462874   -0.287914   -0.723962
     15          1           0        2.489300    0.006841   -2.116745
     16          1           0        0.011350   -0.003455   -2.189590
     17          1           0       -2.085372    1.340736    1.469113
     18          1           0       -3.392944    1.075214    0.319148
     19          1           0       -2.444373    3.341815    0.045637
     20          1           0       -2.164803    2.387268   -1.425451
     21          1           0       -0.839321    2.674934   -0.286546
     22          1           0       -3.382452   -1.100308    0.319535
     23          1           0       -2.072682   -1.352149    1.470045
     24          1           0       -2.141177   -2.401868   -1.423645
     25          1           0       -2.411980   -3.357737    0.048202
     26          1           0       -0.813320   -2.675800   -0.284119
     27          1           0       -0.123077    0.002283    2.095289
     28          1           0        2.335627    0.013261    2.184021
 ---------------------------------------------------------------------

 SCF Done:  E(RB3LYP) =  -500.226659687     A.U. after    1 cycles

 Excitation energies and oscillator strengths:

 Excited State   1:      Singlet-A      4.7097 eV  263.25 nm  f=0.0770  <S**2>=0.000
      43 -> 47         0.19835
      45 -> 46         0.67713
 This state for optimization and/or second-order correction.
 Total Energy, E(TD-HF/TD-DFT) =  -500.053579771
 Copying the excited state density for this state as the 1-particle RhoCI density.

 Excited State   2:      Singlet-A      4.8341 eV  256.48 nm  f=0.0003  <S**2>=0.000
      44 -> 46         0.70480

 Excited State   3:      Singlet-A      5.1499 eV  240.75 nm  f=0.0001  <S**2>=0.000
      44 -> 47         0.70246

 Excited State   4:      Singlet-A      5.4878 eV  225.93 nm  f=0.4800  <S**2>=0.000
      43 -> 46        -0.16815
      45 -> 47         0.68161

 Excited State   5:      Singlet-A      6.4954 eV  190.88 nm  f=0.6402  <S**2>=0.000
      42 -> 46         0.13905
      43 -> 46         0.56030
      43 -> 47        -0.34373
      45 -> 46         0.10747
      45 -> 47         0.14349

 Excited State   6:      Singlet-A      6.5737 eV  188.61 nm  f=0.4624  <S**2>=0.000
      42 -> 46        -0.19513
      43 -> 46         0.37347
      43 -> 47         0.53451
      45 -> 46        -0.14584

 Excited State   7:      Singlet-A      6.9689 eV  177.91 nm  f=0.0290  <S**2>=0.000
      45 -> 48         0.53761
      45 -> 49         0.44363

 Excited State   8:      Singlet-A      7.2470 eV  171.08 nm  f=0.0036  <S**2>=0.000
      45 -> 48        -0.43206
      45 -> 49         0.51837
      45 -> 50         0.19559

 Excited State   9:      Singlet-A      7.2877 eV  170.13 nm  f=0.0390  <S**2>=0.000
      44 -> 48         0.53279
      44 -> 49        -0.44496

 Excited State  10:      Singlet-A      7.5066 eV  165.17 nm  f=0.2474  <S**2>=0.000
      42 -> 46         0.65564
      43 -> 47         0.22243

 The electronic state is 1-A.
 Alpha  occ. eigenvalues --  -14.33573 -14.32125 -10.22650 -10.20374 -10.20371
 Alpha  occ. eigenvalues --  -10.20272 -10.18538 -10.18307 -10.18253 -10.18127
 Alpha  occ. eigenvalues --  -10.17011 -10.17005  -0.92002  -0.91100  -0.82448
 Alpha  occ. eigenvalues --   -0.75716  -0.74076  -0.73073  -0.69500  -0.61883
 Alpha  occ. eigenvalues --   -0.60702  -0.60423  -0.56230  -0.51424  -0.50336
 Alpha  occ. eigenvalues --   -0.47884  -0.46783  -0.44619  -0.43231  -0.43102
 Alpha  occ. eigenvalues --   -0.41631  -0.41157  -0.40069  -0.38963  -0.37514
 Alpha  occ. eigenvalues --   -0.36101  -0.35888  -0.34221  -0.34140  -0.33370
 Alpha  occ. eigenvalues --   -0.33239  -0.30186  -0.24853  -0.21270  -0.20093
 Alpha virt. eigenvalues --   -0.00059   0.01577   0.09317   0.09513   0.11706
 Alpha virt. eigenvalues --    0.12000   0.12393   0.13895   0.14365   0.15725
 Alpha virt. eigenvalues --    0.16294   0.17184   0.17684   0.18127   0.18569

 Mulliken charges:
               1
     1  N   -0.567552
     2  C    0.255550
     3  C   -0.170115
     4  C   -0.157549
     5  C    0.263286
     6  N   -0.510922
     7  C   -0.025506
     8  C   -0.328498
     9  C   -0.025267
    10  C   -0.328500
    11  C   -0.168714
    12  C   -0.167163
    13  H    0.313500
    14  H    0.312921
    15  H    0.076013
    16  H    0.063702
    17  H    0.081130
    18  H    0.102032
    19  H    0.104892
    20  H    0.107234
    21  H    0.112157
    22  H    0.102093
    23  H    0.081310
    24  H    0.107316
    25  H    0.104900
    26  H    0.112056
    27  H    0.073125
    28  H    0.076568
 Sum of Mulliken charges =   0.00000

 Dipole moment (field-independent basis, Debye):
    X=              4.2278    Y=             -1.1605    Z=              1.0663  Tot=              4.5120
 Quadrupole moment (field-independent basis, Debye-Ang):
   XX=            -44.5616   YY=            -76.1723   ZZ=            -72.5084
   XY=             -5.2144   XZ=             -1.1640   YZ=             -0.1380

 Summary of Natural Population Analysis:

                                       Natural Population
                Natural  -----------------------------------------------
    Atom  No    Charge         Core      Valence    Rydberg      Total
 -----------------------------------------------------------------------
      N    1   -0.66972      1.99946     5.66050    0.00976     7.66972
      C    2    0.17867      1.99897     3.80406    0.01830     5.82133
      C    3   -0.34919      1.99906     4.33033    0.01980     6.34919
      C    4   -0.33066      1.99902     4.31183    0.01981     6.33066
      C    5    0.23201      1.99895     3.74557    0.02347     5.76799
      N    6   -0.54323      1.99940     5.52680    0.01703     7.54323
      C    7   -0.25536      1.99935     4.24196    0.01405     6.25536
      C    8   -0.69633      1.99946     4.68910    0.00776     6.69633
      C    9   -0.25517      1.99935     4.24178    0.01404     6.25517
      C   10   -0.69637      1.99946     4.68916    0.00775     6.69637
      C   11   -0.36936      1.99902     4.35146    0.01887     6.36936
      C   12   -0.33700      1.99906     4.31799    0.01995     6.33700
      H   13    0.43120      0.00000     0.56579    0.00301     0.56880
      H   14    0.43069      0.00000     0.56617    0.00314     0.56931
      H   15    0.23288      0.00000     0.76526    0.00186     0.76712
      H   16    0.23643      0.00000     0.76140    0.00217     0.76357
      H   17    0.20558      0.00000     0.79053    0.00388     0.79442
      H   18    0.23528      0.00000     0.76273    0.00199     0.76472
      H   19    0.23928      0.00000     0.75925    0.00147     0.76072
      H   20    0.23230      0.00000     0.76541    0.00228     0.76770
      H   21    0.23487      0.00000     0.76366    0.00147     0.76513
      H   22    0.23529      0.00000     0.76271    0.00199     0.76471
      H   23    0.20565      0.00000     0.79049    0.00386     0.79435
      H   24    0.23237      0.00000     0.76536    0.00227     0.76763
      H   25    0.23928      0.00000     0.75925    0.00147     0.76072
      H   26    0.23483      0.00000     0.76370    0.00147     0.76517
      H   27    0.23381      0.00000     0.76458    0.00161     0.76619
      H   28    0.23196      0.00000     0.76615    0.00189     0.76804
 =======================================================================
   * Total *    0.00000     23.99056    65.78301    0.22643    90.00000

 Normal termination of Gaussian 16 at Thu Jul 11 19:40:58 2024.
