 Gaussian 16, Revision A.03,

 -------------------------------------------------------
 # opt=CalcFc B3LYP/6-31G** SCRF=(Solvent=water) scf=xqc
 -------------------------------------------------------

 ----------------------------------
 ICNFHJVPAJKPHW-UHFFFAOYSA-N_conf_1
 ----------------------------------
 Symbolic Z-matrix:
 Charge =  0 Multiplicity = 1

 SCF Done:  E(RB3LYP) =  -972.229129575     A.U. after   12 cycles
 SCF Done:  E(RB3LYP) =  -972.232171185     A.U. after   10 cycles
 SCF Done:  E(RB3LYP) =  -972.232295608     A.U. after   10 cycles
 SCF Done:  E(RB3LYP) =  -972.232126591     A.U. after   13 cycles
 SCF Done:  E(RB3LYP) =  -972.232300657     A.U. after    8 cycles
 SCF Done:  E(RB3LYP) =  -972.232301743     A.U. after    9 cycles
 SCF Done:  E(RB3LYP) =  -972.232302186     A.U. after    8 cycles
 SCF Done:  E(RB3LYP) =  -972.232302605     A.U. after    8 cycles
 SCF Done:  E(RB3LYP) =  -972.232304054     A.U. after    9 cycles
 SCF Done:  E(RB3LYP) =  -972.232303772     A.U. after    7 cycles
 SCF Done:  E(RB3LYP) =  -972.232303147     A.U. after    8 cycles
 SCF Done:  E(RB3LYP) =  -972.232302920     A.U. after    7 cycles
 SCF Done:  E(RB3LYP) =  -972.232302758     A.U. after    7 cycles
 SCF Done:  E(RB3LYP) =  -972.232304090     A.U. after    9 cycles
 SCF Done:  E(RB3LYP) =  -972.232303503     A.U. after    8 cycles
 SCF Done:  E(RB3LYP) =  -972.232303516     A.U. after    8 cycles
 SCF Done:  E(RB3LYP) =  -972.232303453     A.U. after    8 cycles
 SCF Done:  E(RB3LYP) =  -972.232303501     A.U. after    8 cycles
 Optimization completed.
    -- Stationary point found.
 Normal termination of Gaussian 16 at Wed Jul 17 23:55:48 2024.

 ----------------------------------------------------------------------
 # freq B3LYP/6-31G** SCRF=(Solvent=water) volume NMR pop=NPA density=c
 urrent Geom=AllCheck Guess=Read
 ----------------------------------------------------------------------

 Structure from the checkpoint file:  "ICNFHJVPAJKPHW-UHFFFAOYSA-N_conf_1_1.chk"
 ----------------------------------
 ICNFHJVPAJKPHW-UHFFFAOYSA-N_conf_1
 ----------------------------------
 Charge =  0 Multiplicity = 1

 SCF Done:  E(RB3LYP) =  -972.232303501     A.U. after    1 cycles

      1  N    Isotropic =   198.0001   Anisotropy =    72.4862

      2  C    Isotropic =    49.6797   Anisotropy =   164.1958

      3  C    Isotropic =    81.9353   Anisotropy =   129.2476

      4  C    Isotropic =    61.4468   Anisotropy =   154.9225

      5  C    Isotropic =    67.2162   Anisotropy =   128.2150

      6  S    Isotropic =   456.6538   Anisotropy =   231.0059

      7  C    Isotropic =    67.2139   Anisotropy =   128.2144

      8  C    Isotropic =    62.5078   Anisotropy =   145.9988

      9  C    Isotropic =    83.4814   Anisotropy =   127.0075

     10  C    Isotropic =    49.6814   Anisotropy =   164.1926

     11  N    Isotropic =   198.0015   Anisotropy =    72.4868

     12  C    Isotropic =    81.9357   Anisotropy =   129.2485

     13  C    Isotropic =    61.4502   Anisotropy =   154.9283

     14  C    Isotropic =    62.5034   Anisotropy =   145.9997

     15  C    Isotropic =    83.4809   Anisotropy =   127.0096

     16  H    Isotropic =    28.4979   Anisotropy =    12.2391

     17  H    Isotropic =    28.4383   Anisotropy =    12.2173

     18  H    Isotropic =    25.1786   Anisotropy =     6.0678

     19  H    Isotropic =    24.5348   Anisotropy =     9.2263

     20  H    Isotropic =    24.3306   Anisotropy =     7.0667

     21  H    Isotropic =    25.1868   Anisotropy =     5.3659

     22  H    Isotropic =    28.4979   Anisotropy =    12.2392

     23  H    Isotropic =    28.4384   Anisotropy =    12.2173

     24  H    Isotropic =    25.1786   Anisotropy =     6.0683

     25  H    Isotropic =    24.5350   Anisotropy =     9.2273

     26  H    Isotropic =    24.3304   Anisotropy =     7.0668

     27  H    Isotropic =    25.1867   Anisotropy =     5.3662

  Exact polarizability: 294.852  -0.012 171.743 -31.491   0.012 182.029
 Approx polarizability: 312.615  -0.016 214.156 -41.945   0.015 229.981

                      1                      2                      3
                      A                      A                      A
 Frequencies --      7.8621                 9.9012                34.7253
 Red. masses --      3.5948                 3.9004                 5.8212
 Frc consts  --      0.0001                 0.0002                 0.0041
 IR Inten    --      0.0267                 6.3707                 2.1820

                      4                      5                      6
                      A                      A                      A
 Frequencies --    109.9942               145.2444               224.1896
 Red. masses --      5.4386                 4.9617                 4.8977
 Frc consts  --      0.0388                 0.0617                 0.1450
 IR Inten    --      0.3380                 8.2974                 2.0107

                      7                      8                      9
                      A                      A                      A
 Frequencies --    257.7098               306.6012               308.0908
 Red. masses --      6.4291                 6.8401                 5.1879
 Frc consts  --      0.2516                 0.3788                 0.2901
 IR Inten    --      1.7665                 0.6908                 7.3065

                     10                     11                     12
                      A                      A                      A
 Frequencies --    337.3072               337.4519               394.4199
 Red. masses --      1.0373                 1.0397                 7.9081
 Frc consts  --      0.0695                 0.0698                 0.7248
 IR Inten    --     12.0858                54.4532                12.9391

                     13                     14                     15
                      A                      A                      A
 Frequencies --    396.7057               408.8746               416.6850
 Red. masses --      3.5555                 3.4001                 3.2644
 Frc consts  --      0.3297                 0.3349                 0.3339
 IR Inten    --      0.0508                 0.3743                 0.0340

                     16                     17                     18
                      A                      A                      A
 Frequencies --    421.4511               436.2129               507.4194
 Red. masses --      3.3365                 4.5092                 2.0380
 Frc consts  --      0.3492                 0.5055                 0.3092
 IR Inten    --      1.0186                 3.6826                42.6380

                     19                     20                     21
                      A                      A                      A
 Frequencies --    522.9135               570.1854               581.1295
 Red. masses --      2.0254                 1.6101                 1.6741
 Frc consts  --      0.3263                 0.3084                 0.3331
 IR Inten    --    475.4482               321.2916               475.4055

                     22                     23                     24
                      A                      A                      A
 Frequencies --    640.1665               648.4879               650.0185
 Red. masses --      5.1379                 6.2861                 6.7764
 Frc consts  --      1.2406                 1.5575                 1.6869
 IR Inten    --     16.8008                 1.2062                 1.5161

                     25                     26                     27
                      A                      A                      A
 Frequencies --    653.8908               715.5226               723.5101
 Red. masses --      5.9548                 3.7962                 4.2614
 Frc consts  --      1.5001                 1.1451                 1.3143
 IR Inten    --      0.3565                 2.2951                25.3718

                     28                     29                     30
                      A                      A                      A
 Frequencies --    826.0949               826.4109               830.2391
 Red. masses --      1.2617                 1.2969                 1.8018
 Frc consts  --      0.5073                 0.5219                 0.7317
 IR Inten    --      2.0908                 2.2068                39.7922

                     31                     32                     33
                      A                      A                      A
 Frequencies --    831.5530               841.3269               844.4376
 Red. masses --      1.9986                 3.8278                 3.4636
 Frc consts  --      0.8143                 1.5963                 1.4552
 IR Inten    --     55.2390                11.9490                27.3676

                     34                     35                     36
                      A                      A                      A
 Frequencies --    951.2682               952.8524               959.3259
 Red. masses --      1.2624                 1.2653                 1.3247
 Frc consts  --      0.6731                 0.6769                 0.7183
 IR Inten    --      0.5734                 0.0863                 0.0037

                     37                     38                     39
                      A                      A                      A
 Frequencies --    960.4939              1019.3802              1021.7747
 Red. masses --      1.3243                 3.7212                 3.5022
 Frc consts  --      0.7198                 2.2783                 2.1543
 IR Inten    --      0.0485                 8.0927                 1.4582

                     40                     41                     42
                      A                      A                      A
 Frequencies --   1085.1285              1085.9028              1099.3821
 Red. masses --      1.4797                 1.4684                 3.0881
 Frc consts  --      1.0266                 1.0202                 2.1991
 IR Inten    --      3.8757                 0.1642                 1.4775

                     43                     44                     45
                      A                      A                      A
 Frequencies --   1112.0912              1153.2714              1153.8846
 Red. masses --      3.1523                 1.1942                 1.1912
 Frc consts  --      2.2970                 0.9358                 0.9344
 IR Inten    --      0.1745                25.9329                 2.8184

                     46                     47                     48
                      A                      A                      A
 Frequencies --   1202.5199              1204.7416              1317.4537
 Red. masses --      1.1272                 1.1297                 2.1893
 Frc consts  --      0.9604                 0.9660                 2.2389
 IR Inten    --     70.5094                11.7431                75.7703

                     49                     50                     51
                      A                      A                      A
 Frequencies --   1320.8213              1320.8347              1325.3793
 Red. masses --      2.8815                 2.6297                 1.9203
 Frc consts  --      2.9619                 2.7030                 1.9875
 IR Inten    --     85.9418               193.1547                 2.6281

                     52                     53                     54
                      A                      A                      A
 Frequencies --   1360.6290              1361.6277              1463.7415
 Red. masses --      2.4977                 2.7076                 2.8374
 Frc consts  --      2.7243                 2.9577                 3.5818
 IR Inten    --      9.4802                 1.2878                 2.7389

                     55                     56                     57
                      A                      A                      A
 Frequencies --   1466.8728              1534.0349              1537.7583
 Red. masses --      2.8737                 2.4383                 2.4806
 Frc consts  --      3.6432                 3.3807                 3.4561
 IR Inten    --      1.5941               206.9229                86.6555

                     58                     59                     60
                      A                      A                      A
 Frequencies --   1613.0787              1615.4746              1645.4055
 Red. masses --      6.0725                 6.1590                 2.7781
 Frc consts  --      9.3096                 9.4702                 4.4315
 IR Inten    --      6.1801                 3.2126                60.8613

                     61                     62                     63
                      A                      A                      A
 Frequencies --   1646.7801              1663.3678              1663.9303
 Red. masses --      2.5862                 1.4467                 1.5128
 Frc consts  --      4.1322                 2.3584                 2.4678
 IR Inten    --     44.3738               434.8846                84.4121

                     64                     65                     66
                      A                      A                      A
 Frequencies --   3179.3193              3179.3981              3180.0703
 Red. masses --      1.0881                 1.0881                 1.0885
 Frc consts  --      6.4804                 6.4807                 6.4856
 IR Inten    --     30.6788                18.8122                35.3102

                     67                     68                     69
                      A                      A                      A
 Frequencies --   3180.0967              3198.9516              3199.2346
 Red. masses --      1.0884                 1.0937                 1.0938
 Frc consts  --      6.4849                 6.5945                 6.5958
 IR Inten    --      3.6209                 8.7969                54.9491

                     70                     71                     72
                      A                      A                      A
 Frequencies --   3201.1196              3201.7525              3566.8697
 Red. masses --      1.0942                 1.0944                 1.0483
 Frc consts  --      6.6064                 6.6102                 7.8578
 IR Inten    --      8.2558                 0.6568                99.1330

                     73                     74                     75
                      A                      A                      A
 Frequencies --   3566.9224              3671.1768              3671.1779
 Red. masses --      1.0483                 1.0991                 1.0991
 Frc consts  --      7.8583                 8.7273                 8.7273
 IR Inten    --      6.1628                25.0984                31.1114

 - Thermochemistry -
 -------------------
 Temperature   298.150 Kelvin.  Pressure   1.00000 Atm.
 Atom     1 has atomic number  7 and mass  14.00307

 Molecular mass:   216.07212 amu.
 Principal axes and moments of inertia in atomic units:
                           1         2         3
     Eigenvalues --  1543.243977179.105597705.64374
           X            1.00000  -0.00000  -0.00156
           Y            0.00000   1.00000   0.00003
           Z            0.00156  -0.00003   1.00000
 This molecule is an asymmetric top.
 Rotational symmetry number  1.
 Warning -- assumption of classical behavior for rotation
           may cause significant error
 Rotational temperatures (Kelvin)      0.05612     0.01206     0.01124
 Rotational constants (GHZ):           1.16945     0.25139     0.23421
 Zero-point vibrational energy     565726.2 (Joules/Mol)
                                  135.21180 (Kcal/Mol)
 Warning -- explicit consideration of  21 degrees of freedom as
           vibrations may cause significant error
 Vibrational temperatures:     11.31    14.25    49.96   158.26   208.97
          (Kelvin)            322.56   370.79   441.13   443.27   485.31
                              485.52   567.48   570.77   588.28   599.52
                              606.37   627.61   730.06   752.36   820.37
                              836.12   921.06   933.03   935.23   940.80
                             1029.48  1040.97  1188.57  1189.02  1194.53
                             1196.42  1210.48  1214.96  1368.66  1370.94
                             1380.26  1381.94  1466.66  1470.11  1561.26
                             1562.37  1581.77  1600.05  1659.30  1660.18
                             1730.16  1733.35  1895.52  1900.37  1900.39
                             1906.93  1957.64  1959.08  2106.00  2110.50
                             2207.13  2212.49  2320.86  2324.31  2367.37
                             2369.35  2393.22  2394.02  4574.33  4574.44
                             4575.41  4575.45  4602.58  4602.99  4605.70
                             4606.61  5131.93  5132.01  5282.00  5282.01

 Zero-point correction=                           0.215474 (Hartree/Particle)
 Thermal correction to Energy=                    0.229202
 Thermal correction to Enthalpy=                  0.230146
 Thermal correction to Gibbs Free Energy=         0.171288
 Sum of electronic and zero-point Energies=           -972.016830
 Sum of electronic and thermal Energies=              -972.003101
 Sum of electronic and thermal Enthalpies=            -972.002157
 Sum of electronic and thermal Free Energies=         -972.061016

                     E (Thermal)             CV                S
                      KCal/Mol        Cal/Mol-Kelvin    Cal/Mol-Kelvin
 Total                  143.826             53.803            123.879
 Electronic               0.000              0.000              0.000
 Translational            0.889              2.981             42.015
 Rotational               0.889              2.981             32.812
 Vibrational            142.049             47.842             49.052
 Vibration     1          0.593              1.987              8.489
 Vibration     2          0.593              1.987              8.031
 Vibration     3          0.594              1.983              5.539
 Vibration     4          0.606              1.941              3.269
 Vibration     5          0.617              1.908              2.734
 Vibration     6          0.649              1.804              1.925
 Vibration     7          0.667              1.750              1.677
 Vibration     8          0.697              1.661              1.381
 Vibration     9          0.698              1.658              1.373
 Vibration    10          0.718              1.601              1.225
 Vibration    11          0.718              1.601              1.224
 Vibration    12          0.761              1.482              0.983
 Vibration    13          0.763              1.477              0.975
 Vibration    14          0.773              1.451              0.931
 Vibration    15          0.780              1.434              0.903
 Vibration    16          0.784              1.424              0.887
 Vibration    17          0.797              1.391              0.839
 Vibration    18          0.863              1.234              0.640
 Vibration    19          0.878              1.199              0.603
 Vibration    20          0.926              1.096              0.504
 Vibration    21          0.938              1.072              0.483

 Optimization completed.
    -- Stationary point found.
 Normal termination of Gaussian 16 at Thu Jul 18 00:08:03 2024.
 Gaussian 16:  ES64L-G16RevA.03 25-Dec-2016

 ----------------------------------------------------------------------
 # TD(NStates=10, Root=1) B3LYP/6-31G** SCRF=(Solvent=water) volume pop
 =NPA density=current Geom=AllCheck Guess=Read
 ----------------------------------------------------------------------

 Structure from the checkpoint file:  "ICNFHJVPAJKPHW-UHFFFAOYSA-N_conf_1_2.chk"
 ----------------------------------
 ICNFHJVPAJKPHW-UHFFFAOYSA-N_conf_1
 ----------------------------------
 Charge =  0 Multiplicity = 1

                         Standard orientation:
 ---------------------------------------------------------------------
 Center     Atomic      Atomic             Coordinates (Angstroms)
 Number     Number       Type             X           Y           Z
 ---------------------------------------------------------------------
      1          7           0        4.792568   -1.699840    0.101353
      2          6           0        3.702312   -0.837227    0.098970
      3          6           0        2.764980   -0.855816    1.151986
      4          6           0        1.646874   -0.030493    1.122521
      5          6           0        1.411823    0.822997    0.034342
      6         16           0       -0.000016    1.936660   -0.000234
      7          6           0       -1.411853    0.822987   -0.034551
      8          6           0       -2.339184    0.842638    1.015041
      9          6           0       -3.472034    0.033075    0.982587
     10          6           0       -3.702288   -0.837320   -0.098762
     11          7           0       -4.792514   -1.699973   -0.100903
     12          6           0       -2.764757   -0.856429   -1.151589
     13          6           0       -1.646674   -0.031067   -1.122333
     14          6           0        2.338953    0.842122   -1.015438
     15          6           0        3.471813    0.032583   -0.982798
     16          1           0        5.090142   -2.021956    1.012951
     17          1           0        5.577109   -1.408107   -0.466737
     18          1           0        2.926299   -1.516136    2.000082
     19          1           0        0.945802   -0.052541    1.951454
     20          1           0       -2.176174    1.498925    1.864530
     21          1           0       -4.181763    0.063921    1.804974
     22          1           0       -5.089951   -2.022525   -1.012392
     23          1           0       -5.577140   -1.408011    0.466951
     24          1           0       -2.925897   -1.517191   -1.999374
     25          1           0       -0.945438   -0.053529   -1.951115
     26          1           0        2.175767    1.497972   -1.865230
     27          1           0        4.181361    0.063003   -1.805356
 ---------------------------------------------------------------------

 SCF Done:  E(RB3LYP) =  -972.232303501     A.U. after    1 cycles

 Excitation energies and oscillator strengths:

 Excited State   1:      Singlet-A      4.4028 eV  281.60 nm  f=0.0546  <S**2>=0.000
      57 -> 58         0.68332
 This state for optimization and/or second-order correction.
 Total Energy, E(TD-HF/TD-DFT) =  -972.070503569
 Copying the excited state density for this state as the 1-particle RhoCI density.

 Excited State   2:      Singlet-A      4.4311 eV  279.80 nm  f=0.1204  <S**2>=0.000
      54 -> 60         0.10435
      56 -> 58        -0.11287
      57 -> 59         0.67138
      57 -> 60        -0.10639

 Excited State   3:      Singlet-A      4.5375 eV  273.24 nm  f=0.4667  <S**2>=0.000
      57 -> 59         0.10426
      57 -> 60         0.68857

 Excited State   4:      Singlet-A      4.7485 eV  261.10 nm  f=0.0149  <S**2>=0.000
      56 -> 59         0.17276
      56 -> 60        -0.23788
      57 -> 61         0.60987

 Excited State   5:      Singlet-A      4.8727 eV  254.45 nm  f=0.2410  <S**2>=0.000
      56 -> 58         0.67973
      57 -> 59         0.13632

 Excited State   6:      Singlet-A      4.9334 eV  251.32 nm  f=0.0042  <S**2>=0.000
      56 -> 59         0.64005
      57 -> 61        -0.23766

 Excited State   7:      Singlet-A      5.2151 eV  237.74 nm  f=0.1963  <S**2>=0.000
      56 -> 59         0.14878
      56 -> 60         0.64453
      57 -> 61         0.16789

 Excited State   8:      Singlet-A      5.2217 eV  237.44 nm  f=0.3052  <S**2>=0.000
      56 -> 61         0.68621

 Excited State   9:      Singlet-A      5.6174 eV  220.71 nm  f=0.0265  <S**2>=0.000
      55 -> 58         0.67077
      55 -> 61         0.10361
      57 -> 61        -0.10473

 Excited State  10:      Singlet-A      5.6912 eV  217.85 nm  f=0.0153  <S**2>=0.000
      55 -> 59         0.64703
      55 -> 60         0.23962

 The electronic state is 1-A.
 Alpha  occ. eigenvalues --  -88.87947 -14.34070 -14.34070 -10.23372 -10.23371
 Alpha  occ. eigenvalues --  -10.20986 -10.20985 -10.19483 -10.19482 -10.19475
 Alpha  occ. eigenvalues --  -10.19475 -10.18757 -10.18757 -10.18657 -10.18657
 Alpha  occ. eigenvalues --   -7.93907  -5.90434  -5.90055  -5.89413  -0.91923
 Alpha  occ. eigenvalues --   -0.91906  -0.85296  -0.83907  -0.77457  -0.74764
 Alpha  occ. eigenvalues --   -0.74711  -0.72655  -0.67329  -0.61670  -0.61438
 Alpha  occ. eigenvalues --   -0.59772  -0.57469  -0.52308  -0.51698  -0.50878
 Alpha  occ. eigenvalues --   -0.50677  -0.47433  -0.44749  -0.43380  -0.43170
 Alpha  occ. eigenvalues --   -0.43015  -0.42007  -0.41932  -0.41340  -0.39135
 Alpha  occ. eigenvalues --   -0.38287  -0.36207  -0.34512  -0.34482  -0.33890
 Alpha  occ. eigenvalues --   -0.31147  -0.30255  -0.25493  -0.25466  -0.24573
 Alpha  occ. eigenvalues --   -0.21112  -0.19479
 Alpha virt. eigenvalues --   -0.00802  -0.00673  -0.00396   0.00546   0.06322
 Alpha virt. eigenvalues --    0.07366   0.09510   0.09795   0.12533   0.12783
 Alpha virt. eigenvalues --    0.13080   0.13312   0.15689   0.16360   0.16896

 Mulliken charges:
               1
     1  N   -0.636942
     2  C    0.262959
     3  C   -0.125653
     4  C   -0.142309
     5  C   -0.126281
     6  S    0.129558
     7  C   -0.126171
     8  C   -0.111832
     9  C   -0.145355
    10  C    0.262995
    11  N   -0.636846
    12  C   -0.125738
    13  C   -0.142378
    14  C   -0.111725
    15  C   -0.145293
    16  H    0.293644
    17  H    0.292414
    18  H    0.090842
    19  H    0.088343
    20  H    0.103769
    21  H    0.091459
    22  H    0.293675
    23  H    0.292447
    24  H    0.090796
    25  H    0.088309
    26  H    0.103812
    27  H    0.091498
 Sum of Mulliken charges =  -0.00000

 Dipole moment (field-independent basis, Debye):
    X=              0.0009    Y=             -2.9755    Z=              0.0000  Tot=              2.9755
 Quadrupole moment (field-independent basis, Debye-Ang):
   XX=            -37.3730   YY=            -98.3880   ZZ=            -87.9345
   XY=              0.0085   XZ=              2.2232   YZ=              0.0009

 Summary of Natural Population Analysis:

                                       Natural Population
                Natural  -----------------------------------------------
    Atom  No    Charge         Core      Valence    Rydberg      Total
 -----------------------------------------------------------------------
      N    1   -0.79233      1.99949     5.78170    0.01113     7.79233
      C    2    0.18674      1.99899     3.79628    0.01799     5.81326
      C    3   -0.30249      1.99904     4.28878    0.01466     6.30249
      C    4   -0.30999      1.99899     4.29119    0.01981     6.30999
      C    5   -0.23094      1.99873     4.20878    0.02343     6.23094
      S    6    0.39343      9.99901     5.55551    0.05205    15.60657
      C    7   -0.23073      1.99873     4.20858    0.02342     6.23073
      C    8   -0.23771      1.99899     4.22121    0.01750     6.23771
      C    9   -0.33571      1.99904     4.32055    0.01613     6.33571
      C   10    0.18684      1.99899     3.79618    0.01799     5.81316
      N   11   -0.79216      1.99949     5.78154    0.01113     7.79216
      C   12   -0.30265      1.99904     4.28894    0.01467     6.30265
      C   13   -0.31012      1.99899     4.29132    0.01981     6.31012
      C   14   -0.23752      1.99899     4.22104    0.01749     6.23752
      C   15   -0.33559      1.99904     4.32043    0.01612     6.33559
      H   16    0.42413      0.00000     0.57343    0.00245     0.57587
      H   17    0.42263      0.00000     0.57472    0.00265     0.57737
      H   18    0.24249      0.00000     0.75583    0.00168     0.75751
      H   19    0.24256      0.00000     0.75509    0.00234     0.75744
      H   20    0.25030      0.00000     0.74781    0.00189     0.74970
      H   21    0.24333      0.00000     0.75506    0.00161     0.75667
      H   22    0.42414      0.00000     0.57341    0.00245     0.57586
      H   23    0.42265      0.00000     0.57470    0.00265     0.57735
      H   24    0.24247      0.00000     0.75585    0.00168     0.75753
      H   25    0.24255      0.00000     0.75511    0.00234     0.75745
      H   26    0.25032      0.00000     0.74780    0.00189     0.74968
      H   27    0.24335      0.00000     0.75504    0.00161     0.75665
 =======================================================================
   * Total *    0.00000     37.98555    75.69589    0.31856   114.00000

 Normal termination of Gaussian 16 at Thu Jul 18 00:21:35 2024.
