 Gaussian 16, Revision A.03,

 -------------------------------------------------------
 # opt=CalcFc B3LYP/6-31G** SCRF=(Solvent=water) scf=xqc
 -------------------------------------------------------

 ----------------------------------
 ICNFHJVPAJKPHW-UHFFFAOYSA-N_conf_3
 ----------------------------------
 Symbolic Z-matrix:
 Charge =  0 Multiplicity = 1

 SCF Done:  E(RB3LYP) =  -972.229062155     A.U. after   12 cycles
 SCF Done:  E(RB3LYP) =  -972.232191498     A.U. after   10 cycles
 SCF Done:  E(RB3LYP) =  -972.232158782     A.U. after   13 cycles
 SCF Done:  E(RB3LYP) =  -972.230770676     A.U. after   12 cycles
 SCF Done:  E(RB3LYP) =  -972.222497146     A.U. after   11 cycles
 SCF Done:  E(RB3LYP) =  -972.218966987     A.U. after   11 cycles
 SCF Done:  E(RB3LYP) =  -972.227661251     A.U. after   10 cycles
 SCF Done:  E(RB3LYP) =  -972.230078861     A.U. after   10 cycles
 SCF Done:  E(RB3LYP) =  -972.228904039     A.U. after   10 cycles
 SCF Done:  E(RB3LYP) =  -972.231021136     A.U. after   10 cycles
 SCF Done:  E(RB3LYP) =  -972.232314988     A.U. after    9 cycles
 SCF Done:  E(RB3LYP) =  -972.232275040     A.U. after   11 cycles
 SCF Done:  E(RB3LYP) =  -972.232317755     A.U. after   10 cycles
 SCF Done:  E(RB3LYP) =  -972.232317255     A.U. after    9 cycles
 SCF Done:  E(RB3LYP) =  -972.232318406     A.U. after    9 cycles
 SCF Done:  E(RB3LYP) =  -972.232317676     A.U. after    9 cycles
 SCF Done:  E(RB3LYP) =  -972.232318397     A.U. after    9 cycles
 SCF Done:  E(RB3LYP) =  -972.232318444     A.U. after    7 cycles
 Optimization completed.
    -- Stationary point found.
 Normal termination of Gaussian 16 at Thu Jul 18 01:01:55 2024.

 ----------------------------------------------------------------------
 # freq B3LYP/6-31G** SCRF=(Solvent=water) volume NMR pop=NPA density=c
 urrent Geom=AllCheck Guess=Read
 ----------------------------------------------------------------------

 Structure from the checkpoint file:  "ICNFHJVPAJKPHW-UHFFFAOYSA-N_conf_3_1.chk"
 ----------------------------------
 ICNFHJVPAJKPHW-UHFFFAOYSA-N_conf_3
 ----------------------------------
 Charge =  0 Multiplicity = 1

 SCF Done:  E(RB3LYP) =  -972.232318444     A.U. after    1 cycles

      1  N    Isotropic =   197.8303   Anisotropy =    72.3912

      2  C    Isotropic =    49.5318   Anisotropy =   164.5500

      3  C    Isotropic =    81.9541   Anisotropy =   129.2163

      4  C    Isotropic =    61.1161   Anisotropy =   154.2373

      5  C    Isotropic =    67.6294   Anisotropy =   128.2103

      6  S    Isotropic =   456.9159   Anisotropy =   230.8127

      7  C    Isotropic =    66.8743   Anisotropy =   128.1900

      8  C    Isotropic =    63.0487   Anisotropy =   145.9071

      9  C    Isotropic =    83.4940   Anisotropy =   126.9733

     10  C    Isotropic =    49.8625   Anisotropy =   163.8425

     11  N    Isotropic =   198.1758   Anisotropy =    73.0195

     12  C    Isotropic =    81.9002   Anisotropy =   129.2331

     13  C    Isotropic =    61.9688   Anisotropy =   155.7748

     14  C    Isotropic =    62.0000   Anisotropy =   146.2021

     15  C    Isotropic =    83.4642   Anisotropy =   127.0807

     16  H    Isotropic =    28.4924   Anisotropy =    12.2283

     17  H    Isotropic =    28.4302   Anisotropy =    12.2056

     18  H    Isotropic =    25.1915   Anisotropy =     5.9998

     19  H    Isotropic =    24.5394   Anisotropy =     9.0700

     20  H    Isotropic =    24.3509   Anisotropy =     7.0736

     21  H    Isotropic =    25.1938   Anisotropy =     5.3326

     22  H    Isotropic =    28.4944   Anisotropy =    12.0428

     23  H    Isotropic =    28.4749   Anisotropy =    12.1051

     24  H    Isotropic =    25.1808   Anisotropy =     6.1253

     25  H    Isotropic =    24.5719   Anisotropy =     9.3428

     26  H    Isotropic =    24.3121   Anisotropy =     7.0494

     27  H    Isotropic =    25.1824   Anisotropy =     5.3675

  Exact polarizability: 294.591  -2.750 172.990  31.778  -2.715 181.211
 Approx polarizability: 314.740  -4.438 213.181  40.995  -4.316 228.992

                      1                      2                      3
                      A                      A                      A
 Frequencies --     14.9729                19.3021                35.9516
 Red. masses --      3.9530                 3.6107                 5.7304
 Frc consts  --      0.0005                 0.0008                 0.0044
 IR Inten    --      1.6340                 2.5497                 1.3360

                      4                      5                      6
                      A                      A                      A
 Frequencies --    110.9762               145.2707               224.1783
 Red. masses --      5.3500                 5.1176                 4.9585
 Frc consts  --      0.0388                 0.0636                 0.1468
 IR Inten    --      3.1135                 4.9935                 1.4801

                      7                      8                      9
                      A                      A                      A
 Frequencies --    256.9681               306.4738               309.5010
 Red. masses --      6.2872                 6.2904                 5.3826
 Frc consts  --      0.2446                 0.3481                 0.3038
 IR Inten    --      5.2254                 3.5899                 2.5651

                     10                     11                     12
                      A                      A                      A
 Frequencies --    335.8049               339.2584               394.5008
 Red. masses --      1.0413                 1.0376                 7.6720
 Frc consts  --      0.0692                 0.0704                 0.7035
 IR Inten    --     31.5791                35.0645                17.1453

                     13                     14                     15
                      A                      A                      A
 Frequencies --    396.5006               408.8608               417.0225
 Red. masses --      3.6415                 3.4319                 3.2258
 Frc consts  --      0.3373                 0.3380                 0.3305
 IR Inten    --      1.3622                 0.6487                 1.3138

                     16                     17                     18
                      A                      A                      A
 Frequencies --    421.7865               436.0077               508.0064
 Red. masses --      3.3213                 4.5559                 2.0410
 Frc consts  --      0.3481                 0.5103                 0.3103
 IR Inten    --      1.3095                 7.9435               139.1557

                     19                     20                     21
                      A                      A                      A
 Frequencies --    526.6264               575.0296               575.8005
 Red. masses --      2.0082                 1.7074                 1.6331
 Frc consts  --      0.3282                 0.3326                 0.3190
 IR Inten    --    342.5052               539.6714               332.1966

                     22                     23                     24
                      A                      A                      A
 Frequencies --    642.0111               648.8079               650.2758
 Red. masses --      4.7869                 6.3640                 6.6342
 Frc consts  --      1.1625                 1.5784                 1.6528
 IR Inten    --     16.4774                 3.3654                 1.5112

                     25                     26                     27
                      A                      A                      A
 Frequencies --    654.7209               716.0654               724.2331
 Red. masses --      5.6633                 3.7734                 4.2375
 Frc consts  --      1.4303                 1.1400                 1.3095
 IR Inten    --      5.2045                 6.8807                17.8689

                     28                     29                     30
                      A                      A                      A
 Frequencies --    825.5132               826.4376               830.1842
 Red. masses --      1.2591                 1.2656                 1.8572
 Frc consts  --      0.5055                 0.5093                 0.7542
 IR Inten    --      0.6355                 1.8782                56.9180

                     31                     32                     33
                      A                      A                      A
 Frequencies --    832.1885               842.0818               843.3492
 Red. masses --      2.0611                 3.4088                 3.8615
 Frc consts  --      0.8410                 1.4242                 1.6182
 IR Inten    --     40.8910                30.5916                16.9076

                     34                     35                     36
                      A                      A                      A
 Frequencies --    950.9281               952.6174               959.0353
 Red. masses --      1.2638                 1.2673                 1.3256
 Frc consts  --      0.6733                 0.6776                 0.7184
 IR Inten    --      0.2740                 0.1362                 0.0224

                     37                     38                     39
                      A                      A                      A
 Frequencies --    960.2380              1019.3763              1021.8062
 Red. masses --      1.3253                 3.7129                 3.5044
 Frc consts  --      0.7200                 2.2731                 2.1558
 IR Inten    --      0.0745                 9.7782                 1.2796

                     40                     41                     42
                      A                      A                      A
 Frequencies --   1085.9898              1087.1382              1099.4087
 Red. masses --      1.4787                 1.4702                 3.0852
 Frc consts  --      1.0275                 1.0237                 2.1971
 IR Inten    --      3.2804                 0.6945                 0.9043

                     43                     44                     45
                      A                      A                      A
 Frequencies --   1112.1227              1153.0817              1153.8578
 Red. masses --      3.1489                 1.1935                 1.1918
 Frc consts  --      2.2947                 0.9350                 0.9349
 IR Inten    --      0.7302                23.6298                 5.0438

                     46                     47                     48
                      A                      A                      A
 Frequencies --   1202.5996              1204.9339              1317.4324
 Red. masses --      1.1275                 1.1298                 2.2180
 Frc consts  --      0.9607                 0.9665                 2.2681
 IR Inten    --     67.0450                13.7496                76.3542

                     49                     50                     51
                      A                      A                      A
 Frequencies --   1320.2959              1321.2551              1325.4083
 Red. masses --      2.6853                 2.8052                 1.9148
 Frc consts  --      2.7580                 2.8853                 1.9818
 IR Inten    --    132.5609               143.4061                 2.6061

                     52                     53                     54
                      A                      A                      A
 Frequencies --   1360.9587              1361.9647              1463.8685
 Red. masses --      2.4923                 2.6977                 2.8320
 Frc consts  --      2.7198                 2.9483                 3.5756
 IR Inten    --      9.4610                 1.3320                 2.5004

                     55                     56                     57
                      A                      A                      A
 Frequencies --   1467.0111              1534.0357              1537.7710
 Red. masses --      2.8681                 2.4386                 2.4806
 Frc consts  --      3.6368                 3.3812                 3.4562
 IR Inten    --      1.5900               205.9494                88.2660

                     58                     59                     60
                      A                      A                      A
 Frequencies --   1613.0172              1615.5463              1645.2606
 Red. masses --      6.0740                 6.1602                 2.7204
 Frc consts  --      9.3112                 9.4729                 4.3386
 IR Inten    --      6.2212                 3.2416                75.6957

                     61                     62                     63
                      A                      A                      A
 Frequencies --   1646.8309              1662.9640              1663.5027
 Red. masses --      2.5321                 1.4620                 1.5311
 Frc consts  --      4.0461                 2.3821                 2.4963
 IR Inten    --     27.9595               345.3343               169.4800

                     64                     65                     66
                      A                      A                      A
 Frequencies --   3179.1210              3179.7488              3179.9072
 Red. masses --      1.0881                 1.0881                 1.0886
 Frc consts  --      6.4796                 6.4817                 6.4857
 IR Inten    --     25.2155                34.5717                 9.9631

                     67                     68                     69
                      A                      A                      A
 Frequencies --   3180.2719              3198.7901              3199.4066
 Red. masses --      1.0883                 1.0937                 1.0938
 Frc consts  --      6.4851                 6.5938                 6.5966
 IR Inten    --     18.6715                21.6821                42.1408

                     70                     71                     72
                      A                      A                      A
 Frequencies --   3200.9818              3201.8848              3566.6442
 Red. masses --      1.0943                 1.0944                 1.0483
 Frc consts  --      6.6061                 6.6106                 7.8569
 IR Inten    --      7.3390                 1.5694                49.6655

                     73                     74                     75
                      A                      A                      A
 Frequencies --   3567.1975              3670.7688              3671.6201
 Red. masses --      1.0483                 1.0990                 1.0991
 Frc consts  --      7.8594                 8.7249                 8.7297
 IR Inten    --     51.9250                27.5748                28.6014

 - Thermochemistry -
 -------------------
 Temperature   298.150 Kelvin.  Pressure   1.00000 Atm.
 Atom     1 has atomic number  7 and mass  14.00307

 Molecular mass:   216.07212 amu.
 Principal axes and moments of inertia in atomic units:
                           1         2         3
     Eigenvalues --  1535.412237195.694707719.94923
           X            0.99999   0.00156   0.00329
           Y           -0.00156   1.00000  -0.00007
           Z           -0.00329   0.00006   0.99999
 This molecule is an asymmetric top.
 Rotational symmetry number  1.
 Warning -- assumption of classical behavior for rotation
           may cause significant error
 Rotational temperatures (Kelvin)      0.05641     0.01204     0.01122
 Rotational constants (GHZ):           1.17541     0.25081     0.23378
 Zero-point vibrational energy     565901.1 (Joules/Mol)
                                  135.25360 (Kcal/Mol)
 Warning -- explicit consideration of  21 degrees of freedom as
           vibrations may cause significant error
 Vibrational temperatures:     21.54    27.77    51.73   159.67   209.01
          (Kelvin)            322.54   369.72   440.95   445.30   483.15
                              488.12   567.60   570.48   588.26   600.00
                              606.86   627.32   730.91   757.70   827.34
                              828.45   923.71   933.49   935.60   942.00
                             1030.26  1042.01  1187.73  1189.06  1194.45
                             1197.33  1211.57  1213.39  1368.17  1370.60
                             1379.84  1381.57  1466.66  1470.15  1562.50
                             1564.15  1581.80  1600.10  1659.03  1660.14
                             1730.27  1733.63  1895.49  1899.61  1900.99
                             1906.97  1958.12  1959.56  2106.18  2110.70
                             2207.14  2212.51  2320.77  2324.41  2367.16
                             2369.42  2392.63  2393.41  4574.05  4574.95
                             4575.18  4575.70  4602.35  4603.23  4605.50
                             4606.80  5131.61  5132.40  5281.42  5282.64

 Zero-point correction=                           0.215540 (Hartree/Particle)
 Thermal correction to Energy=                    0.229221
 Thermal correction to Enthalpy=                  0.230166
 Thermal correction to Gibbs Free Energy=         0.172596
 Sum of electronic and zero-point Energies=           -972.016778
 Sum of electronic and thermal Energies=              -972.003097
 Sum of electronic and thermal Enthalpies=            -972.002153
 Sum of electronic and thermal Free Energies=         -972.059723

                     E (Thermal)             CV                S
                      KCal/Mol        Cal/Mol-Kelvin    Cal/Mol-Kelvin
 Total                  143.839             53.780            121.166
 Electronic               0.000              0.000              0.000
 Translational            0.889              2.981             42.015
 Rotational               0.889              2.981             32.811
 Vibrational            142.061             47.818             46.340
 Vibration     1          0.593              1.986              7.209
 Vibration     2          0.593              1.986              6.705
 Vibration     3          0.594              1.982              5.471
 Vibration     4          0.607              1.940              3.252
 Vibration     5          0.617              1.908              2.733
 Vibration     6          0.649              1.804              1.925
 Vibration     7          0.667              1.751              1.682
 Vibration     8          0.697              1.661              1.381
 Vibration     9          0.699              1.656              1.365
 Vibration    10          0.717              1.604              1.232
 Vibration    11          0.719              1.597              1.216
 Vibration    12          0.761              1.482              0.983
 Vibration    13          0.763              1.478              0.976
 Vibration    14          0.773              1.451              0.931
 Vibration    15          0.780              1.433              0.902
 Vibration    16          0.784              1.423              0.886
 Vibration    17          0.796              1.392              0.839
 Vibration    18          0.863              1.232              0.638
 Vibration    19          0.882              1.191              0.595
 Vibration    20          0.931              1.085              0.495
 Vibration    21          0.932              1.084              0.493

 Optimization completed.
    -- Stationary point found.
 Normal termination of Gaussian 16 at Thu Jul 18 01:13:33 2024.
 Gaussian 16:  ES64L-G16RevA.03 25-Dec-2016

 ----------------------------------------------------------------------
 # TD(NStates=10, Root=1) B3LYP/6-31G** SCRF=(Solvent=water) volume pop
 =NPA density=current Geom=AllCheck Guess=Read
 ----------------------------------------------------------------------

 Structure from the checkpoint file:  "ICNFHJVPAJKPHW-UHFFFAOYSA-N_conf_3_2.chk"
 ----------------------------------
 ICNFHJVPAJKPHW-UHFFFAOYSA-N_conf_3
 ----------------------------------
 Charge =  0 Multiplicity = 1

                         Standard orientation:
 ---------------------------------------------------------------------
 Center     Atomic      Atomic             Coordinates (Angstroms)
 Number     Number       Type             X           Y           Z
 ---------------------------------------------------------------------
      1          7           0        4.796000   -1.687094   -0.151172
      2          6           0        3.704086   -0.827627   -0.122488
      3          6           0        2.789174   -0.787133   -1.194559
      4          6           0        1.669380    0.034610   -1.142098
      5          6           0        1.410369    0.825819   -0.012860
      6         16           0       -0.002957    1.935320    0.051999
      7          6           0       -1.414225    0.819763    0.057751
      8          6           0       -2.368986    0.904111   -0.963481
      9          6           0       -3.502222    0.094250   -0.950497
     10          6           0       -3.706072   -0.839534    0.081954
     11          7           0       -4.861311   -1.612307    0.128957
     12          6           0       -2.738346   -0.926772    1.103416
     13          6           0       -1.619805   -0.101491    1.095272
     14          6           0        2.315417    0.785989    1.055692
     15          6           0        3.449246   -0.020863    1.001987
     16          1           0        5.112330   -1.958300   -1.072941
     17          1           0        5.568180   -1.427597    0.448569
     18          1           0        2.969743   -1.398214   -2.075025
     19          1           0        0.986142    0.059567   -1.985692
     20          1           0       -2.224080    1.606238   -1.778957
     21          1           0       -4.232746    0.174855   -1.751055
     22          1           0       -4.785234   -2.474994    0.651778
     23          1           0       -5.323174   -1.753977   -0.759886
     24          1           0       -2.877388   -1.639644    1.911942
     25          1           0       -0.892535   -0.181076    1.897692
     26          1           0        2.133954    1.393964    1.936767
     27          1           0        4.141205   -0.036874    1.839787
 ---------------------------------------------------------------------

 SCF Done:  E(RB3LYP) =  -972.232318444     A.U. after    1 cycles

 Excitation energies and oscillator strengths:

 Excited State   1:      Singlet-A      4.3961 eV  282.03 nm  f=0.0614  <S**2>=0.000
      57 -> 58         0.67027
      57 -> 59        -0.13353
 This state for optimization and/or second-order correction.
 Total Energy, E(TD-HF/TD-DFT) =  -972.070764871
 Copying the excited state density for this state as the 1-particle RhoCI density.

 Excited State   2:      Singlet-A      4.4251 eV  280.18 nm  f=0.1127  <S**2>=0.000
      56 -> 58         0.10577
      57 -> 58         0.13511
      57 -> 59         0.66075

 Excited State   3:      Singlet-A      4.5418 eV  272.98 nm  f=0.4602  <S**2>=0.000
      57 -> 60         0.68929

 Excited State   4:      Singlet-A      4.7410 eV  261.52 nm  f=0.0337  <S**2>=0.000
      56 -> 59        -0.17527
      56 -> 60         0.22003
      57 -> 61         0.61327

 Excited State   5:      Singlet-A      4.8729 eV  254.44 nm  f=0.2327  <S**2>=0.000
      56 -> 58         0.66806
      57 -> 59        -0.13088

 Excited State   6:      Singlet-A      4.9338 eV  251.30 nm  f=0.0229  <S**2>=0.000
      56 -> 58        -0.11453
      56 -> 59         0.63521
      57 -> 61         0.22389

 Excited State   7:      Singlet-A      5.2197 eV  237.53 nm  f=0.3026  <S**2>=0.000
      56 -> 60        -0.21176
      56 -> 61         0.64875

 Excited State   8:      Singlet-A      5.2274 eV  237.18 nm  f=0.1829  <S**2>=0.000
      56 -> 59         0.13448
      56 -> 60         0.61470
      56 -> 61         0.22093
      57 -> 61        -0.14627

 Excited State   9:      Singlet-A      5.6149 eV  220.81 nm  f=0.0249  <S**2>=0.000
      55 -> 58         0.66558
      55 -> 61         0.10119
      57 -> 61        -0.10245

 Excited State  10:      Singlet-A      5.6938 eV  217.75 nm  f=0.0119  <S**2>=0.000
      55 -> 59         0.65726
      55 -> 60         0.19228

 The electronic state is 1-A.
 Alpha  occ. eigenvalues --  -88.87952 -14.34098 -14.34041 -10.23411 -10.23330
 Alpha  occ. eigenvalues --  -10.20996 -10.20989 -10.19513 -10.19502 -10.19457
 Alpha  occ. eigenvalues --  -10.19454 -10.18774 -10.18741 -10.18675 -10.18647
 Alpha  occ. eigenvalues --   -7.93914  -5.90440  -5.90061  -5.89419  -0.91948
 Alpha  occ. eigenvalues --   -0.91881  -0.85301  -0.83910  -0.77462  -0.74773
 Alpha  occ. eigenvalues --   -0.74707  -0.72658  -0.67332  -0.61674  -0.61441
 Alpha  occ. eigenvalues --   -0.59775  -0.57469  -0.52313  -0.51693  -0.50880
 Alpha  occ. eigenvalues --   -0.50675  -0.47421  -0.44751  -0.43378  -0.43145
 Alpha  occ. eigenvalues --   -0.43021  -0.42016  -0.41964  -0.41460  -0.38934
 Alpha  occ. eigenvalues --   -0.38462  -0.35875  -0.34619  -0.34480  -0.34054
 Alpha  occ. eigenvalues --   -0.31279  -0.30127  -0.25509  -0.25457  -0.24581
 Alpha  occ. eigenvalues --   -0.21124  -0.19467
 Alpha virt. eigenvalues --   -0.00811  -0.00688  -0.00366   0.00519   0.06467
 Alpha virt. eigenvalues --    0.07225   0.09561   0.09722   0.12541   0.12771
 Alpha virt. eigenvalues --    0.13105   0.13361   0.15662   0.16342   0.16878

 Mulliken charges:
               1
     1  N   -0.646451
     2  C    0.259635
     3  C   -0.117828
     4  C   -0.133051
     5  C   -0.137063
     6  S    0.128666
     7  C   -0.116566
     8  C   -0.122378
     9  C   -0.150452
    10  C    0.264567
    11  N   -0.627872
    12  C   -0.133631
    13  C   -0.148645
    14  C   -0.102816
    15  C   -0.137568
    16  H    0.290711
    17  H    0.289381
    18  H    0.095600
    19  H    0.092902
    20  H    0.098966
    21  H    0.087175
    22  H    0.296811
    23  H    0.293860
    24  H    0.087027
    25  H    0.085593
    26  H    0.107590
    27  H    0.095837
 Sum of Mulliken charges =  -0.00000

 Dipole moment (field-independent basis, Debye):
    X=              1.4735    Y=             -4.6092    Z=             -1.2260  Tot=              4.9919
 Quadrupole moment (field-independent basis, Debye-Ang):
   XX=            -49.8961   YY=            -91.9889   ZZ=            -88.1975
   XY=              7.6083   XZ=              4.3470   YZ=              1.9080

 Summary of Natural Population Analysis:

                                       Natural Population
                Natural  -----------------------------------------------
    Atom  No    Charge         Core      Valence    Rydberg      Total
 -----------------------------------------------------------------------
      N    1   -0.80859      1.99949     5.79770    0.01139     7.80859
      C    2    0.17643      1.99899     3.80663    0.01795     5.82357
      C    3   -0.28742      1.99904     4.27469    0.01368     6.28742
      C    4   -0.29196      1.99899     4.27399    0.01898     6.29196
      C    5   -0.25267      1.99872     4.22992    0.02402     6.25267
      S    6    0.39367      9.99901     5.55475    0.05256    15.60633
      C    7   -0.21262      1.99873     4.19099    0.02290     6.21262
      C    8   -0.25594      1.99900     4.23833    0.01861     6.25594
      C    9   -0.34664      1.99904     4.33062    0.01697     6.34664
      C   10    0.19419      1.99899     3.78875    0.01807     5.80581
      N   11   -0.77696      1.99949     5.76658    0.01089     7.77696
      C   12   -0.31714      1.99904     4.30251    0.01559     6.31714
      C   13   -0.32205      1.99899     4.30275    0.02031     6.32205
      C   14   -0.22245      1.99899     4.20696    0.01650     6.22245
      C   15   -0.32036      1.99904     4.30623    0.01509     6.32036
      H   16    0.42268      0.00000     0.57496    0.00236     0.57732
      H   17    0.42118      0.00000     0.57622    0.00260     0.57882
      H   18    0.24492      0.00000     0.75344    0.00164     0.75508
      H   19    0.24465      0.00000     0.75297    0.00238     0.75535
      H   20    0.24798      0.00000     0.75005    0.00197     0.75202
      H   21    0.24102      0.00000     0.75727    0.00170     0.75898
      H   22    0.42552      0.00000     0.57210    0.00238     0.57448
      H   23    0.42294      0.00000     0.57406    0.00299     0.57706
      H   24    0.24063      0.00000     0.75771    0.00166     0.75937
      H   25    0.24143      0.00000     0.75641    0.00217     0.75857
      H   26    0.25203      0.00000     0.74608    0.00188     0.74797
      H   27    0.24550      0.00000     0.75292    0.00158     0.75450
 =======================================================================
   * Total *   -0.00000     37.98556    75.69562    0.31883   114.00000

 Normal termination of Gaussian 16 at Thu Jul 18 01:27:17 2024.
