 Gaussian 16, Revision A.03,

 -------------------------------------------------------
 # opt=CalcFc B3LYP/6-31G** SCRF=(Solvent=water) scf=xqc
 -------------------------------------------------------

 ----------------------------------
 ICNFHJVPAJKPHW-UHFFFAOYSA-N_conf_2
 ----------------------------------
 Symbolic Z-matrix:
 Charge =  0 Multiplicity = 1

 SCF Done:  E(RB3LYP) =  -972.229129566     A.U. after   12 cycles
 SCF Done:  E(RB3LYP) =  -972.232171184     A.U. after   10 cycles
 SCF Done:  E(RB3LYP) =  -972.232295608     A.U. after   10 cycles
 SCF Done:  E(RB3LYP) =  -972.232126628     A.U. after   13 cycles
 SCF Done:  E(RB3LYP) =  -972.232300656     A.U. after    8 cycles
 SCF Done:  E(RB3LYP) =  -972.232301743     A.U. after    9 cycles
 SCF Done:  E(RB3LYP) =  -972.232302186     A.U. after    8 cycles
 SCF Done:  E(RB3LYP) =  -972.232302605     A.U. after    8 cycles
 SCF Done:  E(RB3LYP) =  -972.232304055     A.U. after    9 cycles
 SCF Done:  E(RB3LYP) =  -972.232303773     A.U. after    7 cycles
 SCF Done:  E(RB3LYP) =  -972.232303146     A.U. after    8 cycles
 SCF Done:  E(RB3LYP) =  -972.232302919     A.U. after    7 cycles
 SCF Done:  E(RB3LYP) =  -972.232302757     A.U. after    7 cycles
 SCF Done:  E(RB3LYP) =  -972.232304094     A.U. after    9 cycles
 SCF Done:  E(RB3LYP) =  -972.232303502     A.U. after    8 cycles
 SCF Done:  E(RB3LYP) =  -972.232303516     A.U. after    8 cycles
 SCF Done:  E(RB3LYP) =  -972.232303454     A.U. after    8 cycles
 SCF Done:  E(RB3LYP) =  -972.232303503     A.U. after    8 cycles
 Optimization completed.
    -- Stationary point found.
 Normal termination of Gaussian 16 at Wed Jul 17 23:56:37 2024.

 ----------------------------------------------------------------------
 # freq B3LYP/6-31G** SCRF=(Solvent=water) volume NMR pop=NPA density=c
 urrent Geom=AllCheck Guess=Read
 ----------------------------------------------------------------------

 Structure from the checkpoint file:  "ICNFHJVPAJKPHW-UHFFFAOYSA-N_conf_2_1.chk"
 ----------------------------------
 ICNFHJVPAJKPHW-UHFFFAOYSA-N_conf_2
 ----------------------------------
 Charge =  0 Multiplicity = 1

 SCF Done:  E(RB3LYP) =  -972.232303503     A.U. after    1 cycles

      1  N    Isotropic =   198.0002   Anisotropy =    72.4863

      2  C    Isotropic =    49.6797   Anisotropy =   164.1956

      3  C    Isotropic =    81.9354   Anisotropy =   129.2474

      4  C    Isotropic =    61.4470   Anisotropy =   154.9228

      5  C    Isotropic =    67.2159   Anisotropy =   128.2151

      6  S    Isotropic =   456.6539   Anisotropy =   231.0036

      7  C    Isotropic =    67.2145   Anisotropy =   128.2146

      8  C    Isotropic =    62.5069   Anisotropy =   145.9986

      9  C    Isotropic =    83.4814   Anisotropy =   127.0075

     10  C    Isotropic =    49.6811   Anisotropy =   164.1932

     11  N    Isotropic =   198.0012   Anisotropy =    72.4867

     12  C    Isotropic =    81.9359   Anisotropy =   129.2483

     13  C    Isotropic =    61.4495   Anisotropy =   154.9269

     14  C    Isotropic =    62.5037   Anisotropy =   145.9991

     15  C    Isotropic =    83.4809   Anisotropy =   127.0096

     16  H    Isotropic =    28.4979   Anisotropy =    12.2391

     17  H    Isotropic =    28.4383   Anisotropy =    12.2173

     18  H    Isotropic =    25.1786   Anisotropy =     6.0679

     19  H    Isotropic =    24.5348   Anisotropy =     9.2263

     20  H    Isotropic =    24.3305   Anisotropy =     7.0667

     21  H    Isotropic =    25.1868   Anisotropy =     5.3660

     22  H    Isotropic =    28.4384   Anisotropy =    12.2172

     23  H    Isotropic =    28.4979   Anisotropy =    12.2392

     24  H    Isotropic =    25.1786   Anisotropy =     6.0682

     25  H    Isotropic =    24.5349   Anisotropy =     9.2270

     26  H    Isotropic =    24.3304   Anisotropy =     7.0668

     27  H    Isotropic =    25.1867   Anisotropy =     5.3662

  Exact polarizability: 294.849  -0.008 171.740 -31.490   0.009 182.034
 Approx polarizability: 312.611  -0.011 214.152 -41.942   0.011 229.987

                      1                      2                      3
                      A                      A                      A
 Frequencies --      7.8837                 9.9208                34.7245
 Red. masses --      3.5944                 3.9008                 5.8214
 Frc consts  --      0.0001                 0.0002                 0.0041
 IR Inten    --      0.0190                 6.3777                 2.1821

                      4                      5                      6
                      A                      A                      A
 Frequencies --    109.9932               145.2460               224.1879
 Red. masses --      5.4386                 4.9617                 4.8977
 Frc consts  --      0.0388                 0.0617                 0.1450
 IR Inten    --      0.3380                 8.2976                 2.0103

                      7                      8                      9
                      A                      A                      A
 Frequencies --    257.7125               306.6019               308.0901
 Red. masses --      6.4291                 6.8403                 5.1880
 Frc consts  --      0.2516                 0.3789                 0.2901
 IR Inten    --      1.7664                 0.6906                 7.3061

                     10                     11                     12
                      A                      A                      A
 Frequencies --    337.3102               337.4555               394.4198
 Red. masses --      1.0373                 1.0397                 7.9087
 Frc consts  --      0.0695                 0.0698                 0.7249
 IR Inten    --     12.1692                54.3694                12.9396

                     13                     14                     15
                      A                      A                      A
 Frequencies --    396.7078               408.8754               416.6849
 Red. masses --      3.5555                 3.4001                 3.2644
 Frc consts  --      0.3297                 0.3349                 0.3339
 IR Inten    --      0.0508                 0.3744                 0.0340

                     16                     17                     18
                      A                      A                      A
 Frequencies --    421.4516               436.2118               507.4200
 Red. masses --      3.3364                 4.5092                 2.0380
 Frc consts  --      0.3492                 0.5055                 0.3092
 IR Inten    --      1.0186                 3.6819                42.6322

                     19                     20                     21
                      A                      A                      A
 Frequencies --    522.9142               570.1854               581.1295
 Red. masses --      2.0254                 1.6101                 1.6741
 Frc consts  --      0.3263                 0.3084                 0.3331
 IR Inten    --    475.4664               321.2704               475.4085

                     22                     23                     24
                      A                      A                      A
 Frequencies --    640.1670               648.4884               650.0185
 Red. masses --      5.1379                 6.2862                 6.7763
 Frc consts  --      1.2406                 1.5576                 1.6869
 IR Inten    --     16.8023                 1.2061                 1.5163

                     25                     26                     27
                      A                      A                      A
 Frequencies --    653.8905               715.5232               723.5112
 Red. masses --      5.9547                 3.7962                 4.2614
 Frc consts  --      1.5001                 1.1451                 1.3143
 IR Inten    --      0.3564                 2.2950                25.3723

                     28                     29                     30
                      A                      A                      A
 Frequencies --    826.0944               826.4106               830.2386
 Red. masses --      1.2617                 1.2969                 1.8019
 Frc consts  --      0.5073                 0.5218                 0.7318
 IR Inten    --      2.0879                 2.2034                39.7934

                     31                     32                     33
                      A                      A                      A
 Frequencies --    831.5530               841.3270               844.4378
 Red. masses --      1.9987                 3.8279                 3.4636
 Frc consts  --      0.8143                 1.5964                 1.4552
 IR Inten    --     55.2447                11.9473                27.3678

                     34                     35                     36
                      A                      A                      A
 Frequencies --    951.2680               952.8524               959.3257
 Red. masses --      1.2624                 1.2653                 1.3247
 Frc consts  --      0.6731                 0.6769                 0.7183
 IR Inten    --      0.5734                 0.0863                 0.0037

                     37                     38                     39
                      A                      A                      A
 Frequencies --    960.4938              1019.3802              1021.7748
 Red. masses --      1.3243                 3.7213                 3.5022
 Frc consts  --      0.7198                 2.2783                 2.1543
 IR Inten    --      0.0486                 8.0921                 1.4582

                     40                     41                     42
                      A                      A                      A
 Frequencies --   1085.1292              1085.9033              1099.3820
 Red. masses --      1.4797                 1.4684                 3.0881
 Frc consts  --      1.0266                 1.0202                 2.1991
 IR Inten    --      3.8759                 0.1641                 1.4780

                     43                     44                     45
                      A                      A                      A
 Frequencies --   1112.0913              1153.2712              1153.8843
 Red. masses --      3.1523                 1.1942                 1.1912
 Frc consts  --      2.2970                 0.9358                 0.9344
 IR Inten    --      0.1746                25.9334                 2.8177

                     46                     47                     48
                      A                      A                      A
 Frequencies --   1202.5200              1204.7417              1317.4540
 Red. masses --      1.1272                 1.1297                 2.1893
 Frc consts  --      0.9604                 0.9660                 2.2388
 IR Inten    --     70.5095                11.7435                75.7715

                     49                     50                     51
                      A                      A                      A
 Frequencies --   1320.8216              1320.8348              1325.3787
 Red. masses --      2.8840                 2.6275                 1.9204
 Frc consts  --      2.9643                 2.7008                 1.9876
 IR Inten    --     84.9662               194.1259                 2.6312

                     52                     53                     54
                      A                      A                      A
 Frequencies --   1360.6294              1361.6278              1463.7417
 Red. masses --      2.4977                 2.7076                 2.8374
 Frc consts  --      2.7244                 2.9577                 3.5817
 IR Inten    --      9.4798                 1.2876                 2.7389

                     55                     56                     57
                      A                      A                      A
 Frequencies --   1466.8727              1534.0349              1537.7584
 Red. masses --      2.8737                 2.4383                 2.4806
 Frc consts  --      3.6432                 3.3807                 3.4561
 IR Inten    --      1.5940               206.9162                86.6544

                     58                     59                     60
                      A                      A                      A
 Frequencies --   1613.0787              1615.4743              1645.4055
 Red. masses --      6.0725                 6.1590                 2.7783
 Frc consts  --      9.3096                 9.4702                 4.4317
 IR Inten    --      6.1806                 3.2121                60.8719

                     61                     62                     63
                      A                      A                      A
 Frequencies --   1646.7802              1663.3681              1663.9306
 Red. masses --      2.5863                 1.4467                 1.5128
 Frc consts  --      4.1323                 2.3583                 2.4677
 IR Inten    --     44.3791               434.8822                84.4092

                     64                     65                     66
                      A                      A                      A
 Frequencies --   3179.3196              3179.3985              3180.0700
 Red. masses --      1.0881                 1.0881                 1.0885
 Frc consts  --      6.4804                 6.4807                 6.4856
 IR Inten    --     30.6836                18.8130                35.2822

                     67                     68                     69
                      A                      A                      A
 Frequencies --   3180.0964              3198.9515              3199.2345
 Red. masses --      1.0884                 1.0937                 1.0938
 Frc consts  --      6.4849                 6.5945                 6.5958
 IR Inten    --      3.6435                 8.7953                54.9484

                     70                     71                     72
                      A                      A                      A
 Frequencies --   3201.1196              3201.7526              3566.8700
 Red. masses --      1.0942                 1.0944                 1.0483
 Frc consts  --      6.6064                 6.6102                 7.8578
 IR Inten    --      8.2583                 0.6569                99.1533

                     73                     74                     75
                      A                      A                      A
 Frequencies --   3566.9227              3671.1765              3671.1790
 Red. masses --      1.0483                 1.0991                 1.0991
 Frc consts  --      7.8583                 8.7273                 8.7274
 IR Inten    --      6.1445                26.8416                29.3692

 - Thermochemistry -
 -------------------
 Temperature   298.150 Kelvin.  Pressure   1.00000 Atm.
 Atom     1 has atomic number  7 and mass  14.00307

 Molecular mass:   216.07212 amu.
 Principal axes and moments of inertia in atomic units:
                           1         2         3
     Eigenvalues --  1543.258357179.102707705.60968
           X            1.00000  -0.00000  -0.00156
           Y            0.00000   1.00000   0.00002
           Z            0.00156  -0.00002   1.00000
 This molecule is an asymmetric top.
 Rotational symmetry number  1.
 Warning -- assumption of classical behavior for rotation
           may cause significant error
 Rotational temperatures (Kelvin)      0.05612     0.01206     0.01124
 Rotational constants (GHZ):           1.16944     0.25139     0.23421
 Zero-point vibrational energy     565726.5 (Joules/Mol)
                                  135.21188 (Kcal/Mol)
 Warning -- explicit consideration of  21 degrees of freedom as
           vibrations may cause significant error
 Vibrational temperatures:     11.34    14.27    49.96   158.26   208.98
          (Kelvin)            322.56   370.79   441.13   443.27   485.31
                              485.52   567.48   570.77   588.28   599.52
                              606.37   627.61   730.06   752.36   820.37
                              836.12   921.06   933.03   935.23   940.80
                             1029.48  1040.97  1188.57  1189.02  1194.53
                             1196.42  1210.48  1214.96  1368.66  1370.94
                             1380.26  1381.94  1466.66  1470.11  1561.26
                             1562.37  1581.77  1600.05  1659.30  1660.18
                             1730.16  1733.35  1895.52  1900.37  1900.39
                             1906.92  1957.64  1959.08  2106.00  2110.50
                             2207.13  2212.49  2320.86  2324.31  2367.37
                             2369.35  2393.22  2394.02  4574.33  4574.45
                             4575.41  4575.45  4602.58  4602.98  4605.70
                             4606.61  5131.93  5132.01  5282.00  5282.01

 Zero-point correction=                           0.215474 (Hartree/Particle)
 Thermal correction to Energy=                    0.229202
 Thermal correction to Enthalpy=                  0.230146
 Thermal correction to Gibbs Free Energy=         0.171292
 Sum of electronic and zero-point Energies=           -972.016830
 Sum of electronic and thermal Energies=              -972.003101
 Sum of electronic and thermal Enthalpies=            -972.002157
 Sum of electronic and thermal Free Energies=         -972.061012

                     E (Thermal)             CV                S
                      KCal/Mol        Cal/Mol-Kelvin    Cal/Mol-Kelvin
 Total                  143.827             53.803            123.869
 Electronic               0.000              0.000              0.000
 Translational            0.889              2.981             42.015
 Rotational               0.889              2.981             32.812
 Vibrational            142.049             47.842             49.043
 Vibration     1          0.593              1.987              8.483
 Vibration     2          0.593              1.987              8.027
 Vibration     3          0.594              1.983              5.539
 Vibration     4          0.606              1.941              3.269
 Vibration     5          0.617              1.908              2.734
 Vibration     6          0.649              1.804              1.925
 Vibration     7          0.667              1.750              1.677
 Vibration     8          0.697              1.661              1.381
 Vibration     9          0.698              1.658              1.373
 Vibration    10          0.718              1.601              1.225
 Vibration    11          0.718              1.601              1.224
 Vibration    12          0.761              1.482              0.983
 Vibration    13          0.763              1.477              0.975
 Vibration    14          0.773              1.451              0.931
 Vibration    15          0.780              1.434              0.903
 Vibration    16          0.784              1.424              0.887
 Vibration    17          0.797              1.391              0.839
 Vibration    18          0.863              1.234              0.640
 Vibration    19          0.878              1.199              0.603
 Vibration    20          0.926              1.096              0.504
 Vibration    21          0.938              1.072              0.483

 Optimization completed.
    -- Stationary point found.
 Normal termination of Gaussian 16 at Thu Jul 18 00:08:54 2024.
 Gaussian 16:  ES64L-G16RevA.03 25-Dec-2016

 ----------------------------------------------------------------------
 # TD(NStates=10, Root=1) B3LYP/6-31G** SCRF=(Solvent=water) volume pop
 =NPA density=current Geom=AllCheck Guess=Read
 ----------------------------------------------------------------------

 Structure from the checkpoint file:  "ICNFHJVPAJKPHW-UHFFFAOYSA-N_conf_2_2.chk"
 ----------------------------------
 ICNFHJVPAJKPHW-UHFFFAOYSA-N_conf_2
 ----------------------------------
 Charge =  0 Multiplicity = 1

                         Standard orientation:
 ---------------------------------------------------------------------
 Center     Atomic      Atomic             Coordinates (Angstroms)
 Number     Number       Type             X           Y           Z
 ---------------------------------------------------------------------
      1          7           0        4.792557   -1.699860    0.101282
      2          6           0        3.702306   -0.837242    0.098934
      3          6           0        2.764971   -0.855871    1.151947
      4          6           0        1.646869   -0.030541    1.122515
      5          6           0        1.411824    0.822995    0.034371
      6         16           0       -0.000012    1.936665   -0.000161
      7          6           0       -1.411852    0.822997   -0.034521
      8          6           0       -2.339126    0.842529    1.015125
      9          6           0       -3.471973    0.032964    0.982645
     10          6           0       -3.702284   -0.837311   -0.098787
     11          7           0       -4.792507   -1.699967   -0.100963
     12          6           0       -2.764813   -0.856300   -1.151670
     13          6           0       -1.646731   -0.030937   -1.122384
     14          6           0        2.338955    0.842159   -1.015407
     15          6           0        3.471812    0.032614   -0.982799
     16          1           0        5.090128   -2.022015    1.012868
     17          1           0        5.577101   -1.408106   -0.466792
     18          1           0        2.926286   -1.516227    2.000016
     19          1           0        0.945796   -0.052621    1.951445
     20          1           0       -2.176071    1.498724    1.864676
     21          1           0       -4.181657    0.063716    1.805074
     22          1           0       -5.577101   -1.408074    0.466970
     23          1           0       -5.089994   -2.022420   -1.012471
     24          1           0       -2.925998   -1.516968   -1.999519
     25          1           0       -0.945540   -0.053304   -1.951208
     26          1           0        2.175774    1.498045   -1.865172
     27          1           0        4.181362    0.063065   -1.805354
 ---------------------------------------------------------------------

 SCF Done:  E(RB3LYP) =  -972.232303503     A.U. after    1 cycles

 Excitation energies and oscillator strengths:

 Excited State   1:      Singlet-A      4.4028 eV  281.60 nm  f=0.0546  <S**2>=0.000
      57 -> 58         0.68332
 This state for optimization and/or second-order correction.
 Total Energy, E(TD-HF/TD-DFT) =  -972.070502671
 Copying the excited state density for this state as the 1-particle RhoCI density.

 Excited State   2:      Singlet-A      4.4312 eV  279.80 nm  f=0.1204  <S**2>=0.000
      54 -> 60         0.10435
      56 -> 58        -0.11289
      57 -> 59         0.67136
      57 -> 60        -0.10645

 Excited State   3:      Singlet-A      4.5376 eV  273.24 nm  f=0.4667  <S**2>=0.000
      57 -> 59         0.10432
      57 -> 60         0.68857

 Excited State   4:      Singlet-A      4.7485 eV  261.10 nm  f=0.0149  <S**2>=0.000
      56 -> 59         0.17270
      56 -> 60        -0.23793
      57 -> 61         0.60987

 Excited State   5:      Singlet-A      4.8727 eV  254.45 nm  f=0.2410  <S**2>=0.000
      56 -> 58         0.67972
      57 -> 59         0.13634

 Excited State   6:      Singlet-A      4.9334 eV  251.32 nm  f=0.0042  <S**2>=0.000
      56 -> 59         0.64004
      57 -> 61        -0.23765

 Excited State   7:      Singlet-A      5.2151 eV  237.74 nm  f=0.1963  <S**2>=0.000
      56 -> 59         0.14887
      56 -> 60         0.64450
      57 -> 61         0.16791

 Excited State   8:      Singlet-A      5.2216 eV  237.44 nm  f=0.3052  <S**2>=0.000
      56 -> 61         0.68621

 Excited State   9:      Singlet-A      5.6173 eV  220.72 nm  f=0.0265  <S**2>=0.000
      55 -> 58         0.67077
      55 -> 61         0.10361
      57 -> 61        -0.10474

 Excited State  10:      Singlet-A      5.6911 eV  217.86 nm  f=0.0153  <S**2>=0.000
      55 -> 59         0.64699
      55 -> 60         0.23973

 The electronic state is 1-A.
 Alpha  occ. eigenvalues --  -88.87947 -14.34070 -14.34070 -10.23371 -10.23371
 Alpha  occ. eigenvalues --  -10.20986 -10.20985 -10.19483 -10.19483 -10.19475
 Alpha  occ. eigenvalues --  -10.19475 -10.18757 -10.18757 -10.18657 -10.18657
 Alpha  occ. eigenvalues --   -7.93907  -5.90434  -5.90055  -5.89413  -0.91923
 Alpha  occ. eigenvalues --   -0.91906  -0.85296  -0.83907  -0.77457  -0.74764
 Alpha  occ. eigenvalues --   -0.74711  -0.72655  -0.67329  -0.61670  -0.61438
 Alpha  occ. eigenvalues --   -0.59772  -0.57469  -0.52308  -0.51698  -0.50878
 Alpha  occ. eigenvalues --   -0.50677  -0.47433  -0.44749  -0.43380  -0.43170
 Alpha  occ. eigenvalues --   -0.43015  -0.42007  -0.41932  -0.41340  -0.39135
 Alpha  occ. eigenvalues --   -0.38287  -0.36207  -0.34512  -0.34482  -0.33890
 Alpha  occ. eigenvalues --   -0.31147  -0.30255  -0.25493  -0.25466  -0.24573
 Alpha  occ. eigenvalues --   -0.21112  -0.19479
 Alpha virt. eigenvalues --   -0.00802  -0.00673  -0.00396   0.00546   0.06322
 Alpha virt. eigenvalues --    0.07366   0.09510   0.09795   0.12533   0.12783
 Alpha virt. eigenvalues --    0.13080   0.13312   0.15689   0.16360   0.16896

 Mulliken charges:
               1
     1  N   -0.636929
     2  C    0.262963
     3  C   -0.125664
     4  C   -0.142319
     5  C   -0.126266
     6  S    0.129554
     7  C   -0.126183
     8  C   -0.111820
     9  C   -0.145347
    10  C    0.262992
    11  N   -0.636856
    12  C   -0.125729
    13  C   -0.142369
    14  C   -0.111738
    15  C   -0.145301
    16  H    0.293648
    17  H    0.292418
    18  H    0.090836
    19  H    0.088339
    20  H    0.103775
    21  H    0.091464
    22  H    0.292444
    23  H    0.293672
    24  H    0.090802
    25  H    0.088314
    26  H    0.103807
    27  H    0.091493
 Sum of Mulliken charges =   0.00000

 Dipole moment (field-independent basis, Debye):
    X=              0.0005    Y=             -2.9755    Z=              0.0000  Tot=              2.9755
 Quadrupole moment (field-independent basis, Debye-Ang):
   XX=            -37.3725   YY=            -98.3884   ZZ=            -87.9340
   XY=              0.0067   XZ=              2.2229   YZ=              0.0004

 Summary of Natural Population Analysis:

                                       Natural Population
                Natural  -----------------------------------------------
    Atom  No    Charge         Core      Valence    Rydberg      Total
 -----------------------------------------------------------------------
      N    1   -0.79231      1.99949     5.78168    0.01113     7.79231
      C    2    0.18675      1.99899     3.79627    0.01799     5.81325
      C    3   -0.30251      1.99904     4.28880    0.01466     6.30251
      C    4   -0.31001      1.99899     4.29121    0.01981     6.31001
      C    5   -0.23091      1.99873     4.20876    0.02343     6.23091
      S    6    0.39342      9.99901     5.55552    0.05205    15.60658
      C    7   -0.23075      1.99873     4.20860    0.02342     6.23075
      C    8   -0.23769      1.99899     4.22119    0.01750     6.23769
      C    9   -0.33570      1.99904     4.32053    0.01612     6.33570
      C   10    0.18683      1.99899     3.79619    0.01799     5.81317
      N   11   -0.79218      1.99949     5.78156    0.01113     7.79218
      C   12   -0.30264      1.99904     4.28892    0.01467     6.30264
      C   13   -0.31010      1.99899     4.29130    0.01981     6.31010
      C   14   -0.23755      1.99899     4.22106    0.01749     6.23755
      C   15   -0.33561      1.99904     4.32045    0.01612     6.33561
      H   16    0.42413      0.00000     0.57342    0.00245     0.57587
      H   17    0.42263      0.00000     0.57472    0.00265     0.57737
      H   18    0.24249      0.00000     0.75583    0.00168     0.75751
      H   19    0.24256      0.00000     0.75510    0.00234     0.75744
      H   20    0.25030      0.00000     0.74781    0.00189     0.74970
      H   21    0.24333      0.00000     0.75506    0.00161     0.75667
      H   22    0.42264      0.00000     0.57470    0.00265     0.57736
      H   23    0.42414      0.00000     0.57341    0.00245     0.57586
      H   24    0.24247      0.00000     0.75584    0.00168     0.75753
      H   25    0.24255      0.00000     0.75511    0.00234     0.75745
      H   26    0.25031      0.00000     0.74780    0.00189     0.74969
      H   27    0.24335      0.00000     0.75504    0.00161     0.75665
 =======================================================================
   * Total *    0.00000     37.98555    75.69589    0.31856   114.00000

 Normal termination of Gaussian 16 at Thu Jul 18 00:22:40 2024.
