 Gaussian 16, Revision A.03,

 -------------------------------------------------------
 # opt=CalcFc B3LYP/6-31G** SCRF=(Solvent=water) scf=xqc
 -------------------------------------------------------

 ----------------------------------
 ZBMISJGHVWNWTE-UHFFFAOYSA-N_conf_1
 ----------------------------------
 Symbolic Z-matrix:
 Charge =  0 Multiplicity = 1

 SCF Done:  E(RB3LYP) =  -649.253102757     A.U. after   12 cycles
 SCF Done:  E(RB3LYP) =  -649.256593172     A.U. after   11 cycles
 SCF Done:  E(RB3LYP) =  -649.257034296     A.U. after   12 cycles
 SCF Done:  E(RB3LYP) =  -649.255811207     A.U. after   12 cycles
 SCF Done:  E(RB3LYP) =  -649.257199696     A.U. after   10 cycles
 SCF Done:  E(RB3LYP) =  -649.257217869     A.U. after    9 cycles
 SCF Done:  E(RB3LYP) =  -649.257220848     A.U. after    8 cycles
 SCF Done:  E(RB3LYP) =  -649.257232543     A.U. after   10 cycles
 SCF Done:  E(RB3LYP) =  -649.257231494     A.U. after   12 cycles
 SCF Done:  E(RB3LYP) =  -649.257248663     A.U. after   10 cycles
 SCF Done:  E(RB3LYP) =  -649.257252694     A.U. after    7 cycles
 SCF Done:  E(RB3LYP) =  -649.257253656     A.U. after    9 cycles
 SCF Done:  E(RB3LYP) =  -649.257253168     A.U. after    8 cycles
 SCF Done:  E(RB3LYP) =  -649.257256326     A.U. after    9 cycles
 SCF Done:  E(RB3LYP) =  -649.257255964     A.U. after    9 cycles
 SCF Done:  E(RB3LYP) =  -649.257257138     A.U. after    8 cycles
 SCF Done:  E(RB3LYP) =  -649.257257393     A.U. after    7 cycles
 SCF Done:  E(RB3LYP) =  -649.257257381     A.U. after    6 cycles
 Optimization completed.
    -- Stationary point found.
 Normal termination of Gaussian 16 at Sun Jul 21 13:34:06 2024.

 ----------------------------------------------------------------------
 # freq B3LYP/6-31G** SCRF=(Solvent=water) volume NMR pop=NPA density=c
 urrent Geom=AllCheck Guess=Read
 ----------------------------------------------------------------------

 Structure from the checkpoint file:  "ZBMISJGHVWNWTE-UHFFFAOYSA-N_conf_1_1.chk"
 ----------------------------------
 ZBMISJGHVWNWTE-UHFFFAOYSA-N_conf_1
 ----------------------------------
 Charge =  0 Multiplicity = 1

 SCF Done:  E(RB3LYP) =  -649.257257381     A.U. after    1 cycles

      1  N    Isotropic =   200.1621   Anisotropy =    74.1589

      2  C    Isotropic =    51.7926   Anisotropy =   161.2263

      3  C    Isotropic =    81.5005   Anisotropy =   130.5827

      4  C    Isotropic =    72.5183   Anisotropy =   147.7834

      5  C    Isotropic =    52.1900   Anisotropy =   102.2570

      6  O    Isotropic =   185.2786   Anisotropy =    58.6788

      7  C    Isotropic =    35.5419   Anisotropy =   120.6333

      8  C    Isotropic =    94.6342   Anisotropy =   131.9161

      9  C    Isotropic =    66.9136   Anisotropy =   165.3060

     10  C    Isotropic =    89.5209   Anisotropy =   121.8019

     11  C    Isotropic =    48.4253   Anisotropy =   158.8194

     12  N    Isotropic =   199.2330   Anisotropy =    74.5891

     13  C    Isotropic =    95.3775   Anisotropy =    99.9928

     14  C    Isotropic =    72.4729   Anisotropy =   147.0643

     15  C    Isotropic =    81.5843   Anisotropy =   130.7025

     16  H    Isotropic =    28.5275   Anisotropy =    12.1326

     17  H    Isotropic =    28.5352   Anisotropy =    12.1039

     18  H    Isotropic =    25.0501   Anisotropy =     5.4400

     19  H    Isotropic =    24.8014   Anisotropy =     6.9577

     20  H    Isotropic =    26.2031   Anisotropy =    10.2006

     21  H    Isotropic =    24.7797   Anisotropy =     4.9223

     22  H    Isotropic =    25.5468   Anisotropy =     4.5531

     23  H    Isotropic =    28.5539   Anisotropy =    12.4987

     24  H    Isotropic =    28.5447   Anisotropy =    11.7150

     25  H    Isotropic =    25.5513   Anisotropy =     7.0168

     26  H    Isotropic =    24.7647   Anisotropy =     6.7295

     27  H    Isotropic =    25.0395   Anisotropy =     5.3712

  Exact polarizability: 280.319 -26.073 144.014  -3.864  -1.312 131.608
 Approx polarizability: 310.383 -33.378 183.342  -3.453  -2.277 165.989

                      1                      2                      3
                      A                      A                      A
 Frequencies --      8.3525                33.2733                57.2369
 Red. masses --      5.1197                 3.8492                 5.2146
 Frc consts  --      0.0002                 0.0025                 0.0101
 IR Inten    --      1.2186                 1.7979                 1.9551

                      4                      5                      6
                      A                      A                      A
 Frequencies --    168.6103               198.2893               227.9750
 Red. masses --      5.0326                 4.6113                 3.6967
 Frc consts  --      0.0843                 0.1068                 0.1132
 IR Inten    --      1.5992                 2.6950                 6.1794

                      7                      8                      9
                      A                      A                      A
 Frequencies --    238.0568               308.1512               325.1493
 Red. masses --      5.0781                 1.0376                 1.0578
 Frc consts  --      0.1696                 0.0581                 0.0659
 IR Inten    --      2.0301                33.9269                36.3189

                     10                     11                     12
                      A                      A                      A
 Frequencies --    340.0441               352.6420               416.6678
 Red. masses --      4.8758                 5.0423                 3.4687
 Frc consts  --      0.3322                 0.3694                 0.3548
 IR Inten    --      2.3348                 5.6301                 1.2110

                     13                     14                     15
                      A                      A                      A
 Frequencies --    428.0591               436.6613               460.1304
 Red. masses --      3.1667                 3.6699                 2.9738
 Frc consts  --      0.3419                 0.4123                 0.3710
 IR Inten    --      0.5640                 6.0440                13.8967

                     16                     17                     18
                      A                      A                      A
 Frequencies --    509.2655               528.5028               543.0646
 Red. masses --      2.6503                 6.5945                 6.0398
 Frc consts  --      0.4050                 1.0852                 1.0495
 IR Inten    --    108.5875                10.2857                49.3816

                     19                     20                     21
                      A                      A                      A
 Frequencies --    583.5711               608.8254               621.2979
 Red. masses --      1.6144                 1.7621                 2.7095
 Frc consts  --      0.3239                 0.3848                 0.6162
 IR Inten    --    347.5926               433.3947               128.4186

                     22                     23                     24
                      A                      A                      A
 Frequencies --    640.6017               655.1235               696.6740
 Red. masses --      3.0643                 6.7800                 2.3697
 Frc consts  --      0.7409                 1.7145                 0.6777
 IR Inten    --    168.9713                 2.1862                 7.9546

                     25                     26                     27
                      A                      A                      A
 Frequencies --    720.6063               756.8159               767.7161
 Red. masses --      4.3733                 4.7786                 1.4044
 Frc consts  --      1.3380                 1.6126                 0.4877
 IR Inten    --     35.6484                 1.3947                71.5421

                     28                     29                     30
                      A                      A                      A
 Frequencies --    796.4340               821.0969               838.9745
 Red. masses --      4.3652                 1.2540                 1.5376
 Frc consts  --      1.6314                 0.4981                 0.6377
 IR Inten    --     10.3737                 0.1583                51.8707

                     31                     32                     33
                      A                      A                      A
 Frequencies --    848.4101               850.8995               862.8286
 Red. masses --      1.4249                 1.9211                 5.7195
 Frc consts  --      0.6043                 0.8195                 2.5088
 IR Inten    --      4.1721                92.1116                 5.0785

                     34                     35                     36
                      A                      A                      A
 Frequencies --    944.3072               949.3820               963.2773
 Red. masses --      1.3058                 1.3097                 1.2483
 Frc consts  --      0.6860                 0.6955                 0.6825
 IR Inten    --      1.4327                 0.0257                 0.0293

                     37                     38                     39
                      A                      A                      A
 Frequencies --    982.1454              1006.8128              1025.9772
 Red. masses --      2.8170                 5.8934                 2.5972
 Frc consts  --      1.6010                 3.5198                 1.6108
 IR Inten    --     73.8234                 6.7690                16.3498

                     40                     41                     42
                      A                      A                      A
 Frequencies --   1089.0238              1096.9624              1136.4556
 Red. masses --      1.4276                 1.5752                 1.2653
 Frc consts  --      0.9976                 1.1168                 0.9629
 IR Inten    --      5.8427                 4.6362                 2.5094

                     43                     44                     45
                      A                      A                      A
 Frequencies --   1148.6353              1170.3716              1185.9206
 Red. masses --      1.1808                 1.5461                 1.1281
 Frc consts  --      0.9179                 1.2478                 0.9348
 IR Inten    --     18.9650               163.0267                18.8233

                     46                     47                     48
                      A                      A                      A
 Frequencies --   1199.4406              1248.2969              1313.3753
 Red. masses --      1.4245                 3.5262                 3.2365
 Frc consts  --      1.2074                 3.2374                 3.2893
 IR Inten    --     18.9000               653.2009                39.5761

                     49                     50                     51
                      A                      A                      A
 Frequencies --   1320.9143              1324.1258              1344.5056
 Red. masses --      2.3535                 1.6801                 2.1139
 Frc consts  --      2.4194                 1.7356                 2.2514
 IR Inten    --     42.4078                 2.7421                13.2904

                     52                     53                     54
                      A                      A                      A
 Frequencies --   1362.3690              1372.1443              1475.3273
 Red. masses --      3.3262                 5.0699                 2.9661
 Frc consts  --      3.6374                 5.6240                 3.8037
 IR Inten    --      9.8749                60.3026                 0.3754

                     55                     56                     57
                      A                      A                      A
 Frequencies --   1505.9504              1531.2017              1549.3169
 Red. masses --      3.0156                 2.5997                 2.6785
 Frc consts  --      4.0294                 3.5912                 3.7881
 IR Inten    --     63.6797               308.6760               278.2037

                     58                     59                     60
                      A                      A                      A
 Frequencies --   1630.7430              1633.3456              1652.3874
 Red. masses --      6.0493                 6.5257                 1.9809
 Frc consts  --      9.4782                10.2573                 3.1866
 IR Inten    --    116.5389                 1.6690                61.4579

                     61                     62                     63
                      A                      A                      A
 Frequencies --   1656.8865              1666.0198              1671.4172
 Red. masses --      1.3738                 1.8684                 3.1795
 Frc consts  --      2.2220                 3.0554                 5.2333
 IR Inten    --     32.3729               112.3566               391.5268

                     64                     65                     66
                      A                      A                      A
 Frequencies --   3179.4327              3183.1760              3183.2740
 Red. masses --      1.0867                 1.0889                 1.0888
 Frc consts  --      6.4722                 6.5004                 6.5004
 IR Inten    --     14.0275                25.0017                24.9445

                     67                     68                     69
                      A                      A                      A
 Frequencies --   3194.0860              3196.2490              3206.0067
 Red. masses --      1.0922                 1.0932                 1.0941
 Frc consts  --      6.5650                 6.5801                 6.6257
 IR Inten    --     34.0912                13.6870                21.0033

                     70                     71                     72
                      A                      A                      A
 Frequencies --   3207.6052              3232.8121              3560.1743
 Red. masses --      1.0944                 1.0922                 1.0486
 Frc consts  --      6.6343                 6.7252                 7.8310
 IR Inten    --      2.5051                 3.4631                34.0131

                     73                     74                     75
                      A                      A                      A
 Frequencies --   3562.0903              3661.4543              3664.4600
 Red. masses --      1.0485                 1.0982                 1.0984
 Frc consts  --      7.8383                 8.6745                 8.6899
 IR Inten    --     32.7971                24.3008                23.6758

 - Thermochemistry -
 -------------------
 Temperature   298.150 Kelvin.  Pressure   1.00000 Atm.
 Atom     1 has atomic number  7 and mass  14.00307

 Molecular mass:   200.09496 amu.
 Principal axes and moments of inertia in atomic units:
                           1         2         3
     Eigenvalues --   878.941257005.677327240.77889
           X            0.99998  -0.00514  -0.00222
           Y            0.00514   0.99998   0.00308
           Z            0.00221  -0.00309   0.99999
 This molecule is an asymmetric top.
 Rotational symmetry number  1.
 Warning -- assumption of classical behavior for rotation
           may cause significant error
 Rotational temperatures (Kelvin)      0.09854     0.01236     0.01196
 Rotational constants (GHZ):           2.05331     0.25761     0.24925
 Zero-point vibrational energy     573237.7 (Joules/Mol)
                                  137.00711 (Kcal/Mol)
 Warning -- explicit consideration of  20 degrees of freedom as
           vibrations may cause significant error
 Vibrational temperatures:     12.02    47.87    82.35   242.59   285.29
          (Kelvin)            328.01   342.51   443.36   467.82   489.25
                              507.37   599.49   615.88   628.26   662.03
                              732.72   760.40   781.35   839.63   875.96
                              893.91   921.68   942.58  1002.36  1036.79
                             1088.89  1104.57  1145.89  1181.38  1207.10
                             1220.67  1224.25  1241.42  1358.65  1365.95
                             1385.94  1413.09  1448.58  1476.15  1566.86
                             1578.28  1635.11  1652.63  1683.90  1706.28
                             1725.73  1796.02  1889.65  1900.50  1905.12
                             1934.44  1960.15  1974.21  2122.67  2166.73
                             2203.06  2229.12  2346.28  2350.02  2377.42
                             2383.89  2397.03  2404.80  4574.49  4579.88
                             4580.02  4595.58  4598.69  4612.73  4615.03
                             4651.30  5122.30  5125.05  5268.02  5272.34

 Zero-point correction=                           0.218335 (Hartree/Particle)
 Thermal correction to Energy=                    0.231281
 Thermal correction to Enthalpy=                  0.232225
 Thermal correction to Gibbs Free Energy=         0.176895
 Sum of electronic and zero-point Energies=           -649.038923
 Sum of electronic and thermal Energies=              -649.025976
 Sum of electronic and thermal Enthalpies=            -649.025032
 Sum of electronic and thermal Free Energies=         -649.080363

                     E (Thermal)             CV                S
                      KCal/Mol        Cal/Mol-Kelvin    Cal/Mol-Kelvin
 Total                  145.131             51.975            116.453
 Electronic               0.000              0.000              0.000
 Translational            0.889              2.981             41.786
 Rotational               0.889              2.981             32.167
 Vibrational            143.354             46.013             42.501
 Vibration     1          0.593              1.987              8.369
 Vibration     2          0.594              1.983              5.624
 Vibration     3          0.596              1.975              4.550
 Vibration     4          0.625              1.881              2.451
 Vibration     5          0.637              1.842              2.149
 Vibration     6          0.651              1.798              1.895
 Vibration     7          0.656              1.782              1.817
 Vibration     8          0.698              1.658              1.372
 Vibration     9          0.709              1.625              1.284
 Vibration    10          0.720              1.595              1.212
 Vibration    11          0.729              1.570              1.154
 Vibration    12          0.780              1.434              0.903
 Vibration    13          0.790              1.409              0.865
 Vibration    14          0.797              1.390              0.837
 Vibration    15          0.818              1.338              0.766
 Vibration    16          0.864              1.229              0.635
 Vibration    17          0.883              1.187              0.591
 Vibration    18          0.898              1.155              0.559
 Vibration    19          0.940              1.067              0.479
 Vibration    20          0.968              1.013              0.435

 Optimization completed.
    -- Stationary point found.
 Normal termination of Gaussian 16 at Sun Jul 21 13:47:16 2024.
 Gaussian 16:  ES64L-G16RevA.03 25-Dec-2016

 ----------------------------------------------------------------------
 # TD(NStates=10, Root=1) B3LYP/6-31G** SCRF=(Solvent=water) volume pop
 =NPA density=current Geom=AllCheck Guess=Read
 ----------------------------------------------------------------------

 Structure from the checkpoint file:  "ZBMISJGHVWNWTE-UHFFFAOYSA-N_conf_1_2.chk"
 ----------------------------------
 ZBMISJGHVWNWTE-UHFFFAOYSA-N_conf_1
 ----------------------------------
 Charge =  0 Multiplicity = 1

                         Standard orientation:
 ---------------------------------------------------------------------
 Center     Atomic      Atomic             Coordinates (Angstroms)
 Number     Number       Type             X           Y           Z
 ---------------------------------------------------------------------
      1          7           0       -5.122696    0.514508   -0.026618
      2          6           0       -3.772665    0.158551   -0.017340
      3          6           0       -3.051903    0.036735   -1.220437
      4          6           0       -1.723903   -0.383709   -1.217044
      5          6           0       -1.091859   -0.687550   -0.011270
      6          8           0        0.209433   -1.188367   -0.011196
      7          6           0        1.276616   -0.311925    0.014841
      8          6           0        1.140227    1.077550    0.089517
      9          6           0        2.304336    1.852155    0.109644
     10          6           0        3.569280    1.275734    0.059460
     11          6           0        3.697988   -0.126164   -0.013805
     12          7           0        4.958118   -0.724385   -0.000026
     13          6           0        2.536694   -0.912965   -0.037111
     14          6           0       -1.789221   -0.573773    1.190828
     15          6           0       -3.118127   -0.155128    1.188578
     16          1           0       -5.455927    0.931956    0.833153
     17          1           0       -5.409795    1.060935   -0.828765
     18          1           0       -3.540072    0.269630   -2.162848
     19          1           0       -1.175039   -0.479770   -2.148611
     20          1           0        0.161726    1.538868    0.128621
     21          1           0        2.216490    2.933827    0.163831
     22          1           0        4.459807    1.897421    0.077341
     23          1           0        5.706614   -0.139846   -0.349582
     24          1           0        4.995458   -1.649200   -0.409287
     25          1           0        2.600440   -1.995481   -0.094579
     26          1           0       -1.290163   -0.816952    2.123598
     27          1           0       -3.657737   -0.072377    2.128039
 ---------------------------------------------------------------------

 SCF Done:  E(RB3LYP) =  -649.257257381     A.U. after    1 cycles

 Excitation energies and oscillator strengths:

 Excited State   1:      Singlet-A      4.5934 eV  269.92 nm  f=0.0846  <S**2>=0.000
      50 -> 56        -0.16420
      52 -> 54         0.46333
      53 -> 54         0.49864
 This state for optimization and/or second-order correction.
 Total Energy, E(TD-HF/TD-DFT) =  -649.088451912
 Copying the excited state density for this state as the 1-particle RhoCI density.

 Excited State   2:      Singlet-A      4.6700 eV  265.49 nm  f=0.1307  <S**2>=0.000
      51 -> 57         0.13379
      52 -> 54         0.48843
      53 -> 54        -0.45015
      53 -> 55        -0.15380

 Excited State   3:      Singlet-A      4.9962 eV  248.15 nm  f=0.0257  <S**2>=0.000
      51 -> 57        -0.20816
      52 -> 54         0.13027
      52 -> 55        -0.28665
      53 -> 54        -0.16826
      53 -> 55         0.55610

 Excited State   4:      Singlet-A      5.1837 eV  239.18 nm  f=0.0067  <S**2>=0.000
      52 -> 55         0.60761
      53 -> 55         0.32764

 Excited State   5:      Singlet-A      5.2750 eV  235.04 nm  f=0.0089  <S**2>=0.000
      51 -> 56         0.10999
      52 -> 56        -0.30944
      53 -> 56         0.61563

 Excited State   6:      Singlet-A      5.3028 eV  233.81 nm  f=0.0053  <S**2>=0.000
      51 -> 54         0.68899

 Excited State   7:      Singlet-A      5.4549 eV  227.29 nm  f=0.5727  <S**2>=0.000
      50 -> 54         0.12500
      51 -> 57         0.12203
      52 -> 56         0.58543
      52 -> 57         0.11819
      53 -> 56         0.27702
      53 -> 57         0.15461

 Excited State   8:      Singlet-A      5.5423 eV  223.70 nm  f=0.0820  <S**2>=0.000
      52 -> 56        -0.14518
      52 -> 57         0.54665
      53 -> 57         0.39866

 Excited State   9:      Singlet-A      5.6521 eV  219.36 nm  f=0.2388  <S**2>=0.000
      51 -> 55         0.32331
      52 -> 57        -0.36435
      53 -> 55        -0.11589
      53 -> 57         0.47544

 Excited State  10:      Singlet-A      5.8085 eV  213.45 nm  f=0.0008  <S**2>=0.000
      51 -> 56         0.68859
      53 -> 56        -0.10977

 The electronic state is 1-A.
 Alpha  occ. eigenvalues --  -19.18257 -14.33788 -14.33687 -10.24928 -10.23817
 Alpha  occ. eigenvalues --  -10.23105 -10.22991 -10.19292 -10.19275 -10.19000
 Alpha  occ. eigenvalues --  -10.18845 -10.18833 -10.17800 -10.17713 -10.17667
 Alpha  occ. eigenvalues --   -1.06870  -0.91633  -0.91458  -0.84414  -0.82720
 Alpha  occ. eigenvalues --   -0.75185  -0.74939  -0.72481  -0.71057  -0.62647
 Alpha  occ. eigenvalues --   -0.62059  -0.60828  -0.57799  -0.54181  -0.51419
 Alpha  occ. eigenvalues --   -0.51081  -0.50778  -0.49005  -0.46465  -0.44889
 Alpha  occ. eigenvalues --   -0.44516  -0.44080  -0.42203  -0.41974  -0.40963
 Alpha  occ. eigenvalues --   -0.39525  -0.38018  -0.37632  -0.36561  -0.35954
 Alpha  occ. eigenvalues --   -0.34526  -0.33705  -0.30213  -0.29486  -0.25591
 Alpha  occ. eigenvalues --   -0.22688  -0.20389  -0.20265
 Alpha virt. eigenvalues --   -0.00884   0.00875   0.01314   0.02157   0.08915
 Alpha virt. eigenvalues --    0.09437   0.10512   0.11131   0.13032   0.13359
 Alpha virt. eigenvalues --    0.15910   0.16577   0.17130   0.17179   0.17474

 Mulliken charges:
               1
     1  N   -0.569894
     2  C    0.263871
     3  C   -0.168661
     4  C   -0.157826
     5  C    0.324907
     6  O   -0.583692
     7  C    0.317170
     8  C   -0.144247
     9  C   -0.133465
    10  C   -0.135909
    11  C    0.259058
    12  N   -0.673710
    13  C   -0.181394
    14  C   -0.163253
    15  C   -0.162271
    16  H    0.315485
    17  H    0.315238
    18  H    0.086845
    19  H    0.087125
    20  H    0.099653
    21  H    0.094617
    22  H    0.087438
    23  H    0.279273
    24  H    0.278486
    25  H    0.090483
    26  H    0.086028
    27  H    0.088644
 Sum of Mulliken charges =  -0.00000

 Dipole moment (field-independent basis, Debye):
    X=             -3.8008    Y=              2.6838    Z=             -1.2373  Tot=              4.8145
 Quadrupole moment (field-independent basis, Debye-Ang):
   XX=            -35.6665   YY=            -84.0854   ZZ=            -86.1773
   XY=            -16.2739   XZ=             -8.1745   YZ=              1.1307

 Summary of Natural Population Analysis:

                                       Natural Population
                Natural  -----------------------------------------------
    Atom  No    Charge         Core      Valence    Rydberg      Total
 -----------------------------------------------------------------------
      N    1   -0.67342      1.99946     5.66421    0.00974     7.67342
      C    2    0.18092      1.99897     3.80210    0.01801     5.81908
      C    3   -0.34231      1.99907     4.32411    0.01914     6.34231
      C    4   -0.36018      1.99901     4.34172    0.01945     6.36018
      C    5    0.36466      1.99870     3.61318    0.02346     5.63534
      O    6   -0.51294      1.99969     6.50185    0.01140     8.51294
      C    7    0.32245      1.99874     3.65673    0.02207     5.67755
      C    8   -0.34687      1.99901     4.33551    0.01235     6.34687
      C    9   -0.23980      1.99913     4.22561    0.01506     6.23980
      C   10   -0.31743      1.99903     4.30557    0.01283     6.31743
      C   11    0.17846      1.99900     3.80489    0.01765     5.82154
      N   12   -0.85191      1.99951     5.84069    0.01171     7.85191
      C   13   -0.36346      1.99896     4.35082    0.01368     6.36346
      C   14   -0.36682      1.99901     4.34809    0.01972     6.36682
      C   15   -0.32890      1.99906     4.31086    0.01898     6.32890
      H   16    0.43298      0.00000     0.56419    0.00282     0.56702
      H   17    0.43276      0.00000     0.56435    0.00289     0.56724
      H   18    0.23885      0.00000     0.75941    0.00174     0.76115
      H   19    0.24739      0.00000     0.75100    0.00161     0.75261
      H   20    0.25383      0.00000     0.74470    0.00147     0.74617
      H   21    0.24525      0.00000     0.75337    0.00139     0.75475
      H   22    0.24171      0.00000     0.75682    0.00148     0.75829
      H   23    0.41555      0.00000     0.58212    0.00233     0.58445
      H   24    0.41478      0.00000     0.58275    0.00247     0.58522
      H   25    0.24815      0.00000     0.74995    0.00190     0.75185
      H   26    0.24692      0.00000     0.75142    0.00166     0.75308
      H   27    0.23939      0.00000     0.75882    0.00179     0.76061
 =======================================================================
   * Total *   -0.00000     29.98636    75.74484    0.26880   106.00000

 Normal termination of Gaussian 16 at Sun Jul 21 13:58:24 2024.
