 Gaussian 16, Revision A.03,

 -------------------------------------------------------
 # opt=CalcFc B3LYP/6-31G** SCRF=(Solvent=water) scf=xqc
 -------------------------------------------------------

 ----------------------------------
 ZBMISJGHVWNWTE-UHFFFAOYSA-N_conf_3
 ----------------------------------
 Symbolic Z-matrix:
 Charge =  0 Multiplicity = 1

 SCF Done:  E(RB3LYP) =  -649.252947081     A.U. after   12 cycles
 SCF Done:  E(RB3LYP) =  -649.257040051     A.U. after   12 cycles
 SCF Done:  E(RB3LYP) =  -649.256266572     A.U. after   12 cycles
 SCF Done:  E(RB3LYP) =  -649.255450360     A.U. after   11 cycles
 SCF Done:  E(RB3LYP) =  -649.257203639     A.U. after    9 cycles
 SCF Done:  E(RB3LYP) =  -649.257209744     A.U. after    9 cycles
 SCF Done:  E(RB3LYP) =  -649.257213914     A.U. after    9 cycles
 SCF Done:  E(RB3LYP) =  -649.257228607     A.U. after    9 cycles
 SCF Done:  E(RB3LYP) =  -649.257254607     A.U. after   10 cycles
 SCF Done:  E(RB3LYP) =  -649.257247046     A.U. after   10 cycles
 SCF Done:  E(RB3LYP) =  -649.257254664     A.U. after    9 cycles
 SCF Done:  E(RB3LYP) =  -649.257255295     A.U. after    7 cycles
 SCF Done:  E(RB3LYP) =  -649.257255658     A.U. after    7 cycles
 SCF Done:  E(RB3LYP) =  -649.257256637     A.U. after    8 cycles
 SCF Done:  E(RB3LYP) =  -649.257257418     A.U. after    7 cycles
 SCF Done:  E(RB3LYP) =  -649.257257254     A.U. after    7 cycles
 SCF Done:  E(RB3LYP) =  -649.257257346     A.U. after    6 cycles
 Optimization completed.
    -- Stationary point found.
 Normal termination of Gaussian 16 at Sun Jul 21 13:35:23 2024.

 ----------------------------------------------------------------------
 # freq B3LYP/6-31G** SCRF=(Solvent=water) volume NMR pop=NPA density=c
 urrent Geom=AllCheck Guess=Read
 ----------------------------------------------------------------------

 Structure from the checkpoint file:  "ZBMISJGHVWNWTE-UHFFFAOYSA-N_conf_3_1.chk"
 ----------------------------------
 ZBMISJGHVWNWTE-UHFFFAOYSA-N_conf_3
 ----------------------------------
 Charge =  0 Multiplicity = 1

 SCF Done:  E(RB3LYP) =  -649.257257346     A.U. after    1 cycles

      1  N    Isotropic =   200.1627   Anisotropy =    74.1579

      2  C    Isotropic =    51.7931   Anisotropy =   161.2259

      3  C    Isotropic =    81.5851   Anisotropy =   130.6987

      4  C    Isotropic =    72.4716   Anisotropy =   147.0677

      5  C    Isotropic =    52.1900   Anisotropy =   102.2579

      6  O    Isotropic =   185.2806   Anisotropy =    58.6758

      7  C    Isotropic =    35.5420   Anisotropy =   120.6333

      8  C    Isotropic =    94.6330   Anisotropy =   131.9175

      9  C    Isotropic =    66.9135   Anisotropy =   165.3062

     10  C    Isotropic =    89.5206   Anisotropy =   121.8042

     11  C    Isotropic =    48.4253   Anisotropy =   158.8192

     12  N    Isotropic =   199.2325   Anisotropy =    74.5902

     13  C    Isotropic =    95.3773   Anisotropy =    99.9923

     14  C    Isotropic =    72.5193   Anisotropy =   147.7797

     15  C    Isotropic =    81.5001   Anisotropy =   130.5852

     16  H    Isotropic =    28.5351   Anisotropy =    12.1042

     17  H    Isotropic =    28.5276   Anisotropy =    12.1323

     18  H    Isotropic =    25.0396   Anisotropy =     5.3710

     19  H    Isotropic =    24.7646   Anisotropy =     6.7294

     20  H    Isotropic =    26.2031   Anisotropy =    10.2007

     21  H    Isotropic =    24.7797   Anisotropy =     4.9223

     22  H    Isotropic =    25.5468   Anisotropy =     4.5532

     23  H    Isotropic =    28.5448   Anisotropy =    11.7147

     24  H    Isotropic =    28.5538   Anisotropy =    12.4988

     25  H    Isotropic =    25.5513   Anisotropy =     7.0166

     26  H    Isotropic =    24.8015   Anisotropy =     6.9578

     27  H    Isotropic =    25.0501   Anisotropy =     5.4402

  Exact polarizability: 280.319 -26.074 144.008   3.857   1.295 131.614
 Approx polarizability: 310.383 -33.379 183.334   3.445   2.258 165.996

                      1                      2                      3
                      A                      A                      A
 Frequencies --      8.3305                33.2617                57.2250
 Red. masses --      5.1185                 3.8500                 5.2145
 Frc consts  --      0.0002                 0.0025                 0.0101
 IR Inten    --      1.2153                 1.7985                 1.9555

                      4                      5                      6
                      A                      A                      A
 Frequencies --    168.5921               198.2930               227.9771
 Red. masses --      5.0325                 4.6114                 3.6968
 Frc consts  --      0.0843                 0.1068                 0.1132
 IR Inten    --      1.6011                 2.6929                 6.1794

                      7                      8                      9
                      A                      A                      A
 Frequencies --    238.0565               308.1475               325.1509
 Red. masses --      5.0780                 1.0376                 1.0578
 Frc consts  --      0.1696                 0.0580                 0.0659
 IR Inten    --      2.0295                33.9147                36.3309

                     10                     11                     12
                      A                      A                      A
 Frequencies --    340.0557               352.6339               416.6683
 Red. masses --      4.8767                 5.0420                 3.4688
 Frc consts  --      0.3323                 0.3694                 0.3548
 IR Inten    --      2.3301                 5.6340                 1.2123

                     13                     14                     15
                      A                      A                      A
 Frequencies --    428.0557               436.6683               460.1236
 Red. masses --      3.1665                 3.6697                 2.9739
 Frc consts  --      0.3418                 0.4123                 0.3710
 IR Inten    --      0.5633                 6.0428                13.8957

                     16                     17                     18
                      A                      A                      A
 Frequencies --    509.2584               528.5030               543.0630
 Red. masses --      2.6502                 6.5947                 6.0403
 Frc consts  --      0.4049                 1.0853                 1.0496
 IR Inten    --    108.6112                10.2699                49.3779

                     19                     20                     21
                      A                      A                      A
 Frequencies --    583.5930               608.8032               621.2748
 Red. masses --      1.6149                 1.7604                 2.7132
 Frc consts  --      0.3240                 0.3844                 0.6170
 IR Inten    --    347.3242               434.3275               127.5190

                     22                     23                     24
                      A                      A                      A
 Frequencies --    640.6150               655.1249               696.6738
 Red. masses --      3.0632                 6.7797                 2.3698
 Frc consts  --      0.7407                 1.7144                 0.6777
 IR Inten    --    169.1914                 2.1940                 7.9633

                     25                     26                     27
                      A                      A                      A
 Frequencies --    720.6012               756.8168               767.7189
 Red. masses --      4.3734                 4.7785                 1.4044
 Frc consts  --      1.3380                 1.6126                 0.4877
 IR Inten    --     35.6307                 1.3927                71.5432

                     28                     29                     30
                      A                      A                      A
 Frequencies --    796.4385               821.0842               838.9829
 Red. masses --      4.3649                 1.2540                 1.5375
 Frc consts  --      1.6313                 0.4981                 0.6376
 IR Inten    --     10.3808                 0.1586                51.8633

                     31                     32                     33
                      A                      A                      A
 Frequencies --    848.4137               850.8879               862.8311
 Red. masses --      1.4251                 1.9208                 5.7199
 Frc consts  --      0.6044                 0.8193                 2.5089
 IR Inten    --      4.2206                92.0738                 5.0814

                     34                     35                     36
                      A                      A                      A
 Frequencies --    944.2999               949.3740               963.2770
 Red. masses --      1.3058                 1.3097                 1.2483
 Frc consts  --      0.6860                 0.6955                 0.6825
 IR Inten    --      1.4344                 0.0260                 0.0293

                     37                     38                     39
                      A                      A                      A
 Frequencies --    982.1467              1006.8145              1025.9781
 Red. masses --      2.8171                 5.8934                 2.5972
 Frc consts  --      1.6010                 3.5198                 1.6108
 IR Inten    --     73.8224                 6.7686                16.3429

                     40                     41                     42
                      A                      A                      A
 Frequencies --   1089.0431              1096.9648              1136.4618
 Red. masses --      1.4276                 1.5752                 1.2653
 Frc consts  --      0.9976                 1.1168                 0.9629
 IR Inten    --      5.8505                 4.6361                 2.5078

                     43                     44                     45
                      A                      A                      A
 Frequencies --   1148.6476              1170.3726              1185.9236
 Red. masses --      1.1808                 1.5461                 1.1281
 Frc consts  --      0.9179                 1.2478                 0.9348
 IR Inten    --     18.9655               163.0438                18.8000

                     46                     47                     48
                      A                      A                      A
 Frequencies --   1199.4420              1248.3068              1313.3794
 Red. masses --      1.4245                 3.5262                 3.2359
 Frc consts  --      1.2074                 3.2374                 3.2887
 IR Inten    --     18.9147               653.1970                39.5916

                     49                     50                     51
                      A                      A                      A
 Frequencies --   1320.9162              1324.1301              1344.5064
 Red. masses --      2.3541                 1.6801                 2.1137
 Frc consts  --      2.4201                 1.7356                 2.2512
 IR Inten    --     42.4022                 2.7374                13.2891

                     52                     53                     54
                      A                      A                      A
 Frequencies --   1362.3742              1372.1454              1475.3310
 Red. masses --      3.3260                 5.0703                 2.9659
 Frc consts  --      3.6372                 5.6245                 3.8035
 IR Inten    --      9.8769                60.2929                 0.3751

                     55                     56                     57
                      A                      A                      A
 Frequencies --   1505.9514              1531.2029              1549.3218
 Red. masses --      3.0156                 2.5997                 2.6785
 Frc consts  --      4.0294                 3.5912                 3.7882
 IR Inten    --     63.6540               308.6719               278.2114

                     58                     59                     60
                      A                      A                      A
 Frequencies --   1630.7478              1633.3487              1652.3925
 Red. masses --      6.0497                 6.5255                 1.9819
 Frc consts  --      9.4788                10.2571                 3.1883
 IR Inten    --    116.5371                 1.6695                61.4813

                     61                     62                     63
                      A                      A                      A
 Frequencies --   1656.8958              1666.0268              1671.4218
 Red. masses --      1.3741                 1.8676                 3.1772
 Frc consts  --      2.2226                 3.0542                 5.2296
 IR Inten    --     32.3538               112.3945               391.4953

                     64                     65                     66
                      A                      A                      A
 Frequencies --   3179.4333              3183.1563              3183.2687
 Red. masses --      1.0867                 1.0889                 1.0888
 Frc consts  --      6.4722                 6.5004                 6.5004
 IR Inten    --     14.0240                24.9308                25.0266

                     67                     68                     69
                      A                      A                      A
 Frequencies --   3194.0857              3196.2488              3206.0060
 Red. masses --      1.0922                 1.0932                 1.0941
 Frc consts  --      6.5650                 6.5801                 6.6257
 IR Inten    --     34.0879                13.6907                20.9989

                     70                     71                     72
                      A                      A                      A
 Frequencies --   3207.6039              3232.8013              3560.1818
 Red. masses --      1.0944                 1.0922                 1.0486
 Frc consts  --      6.6343                 6.7251                 7.8310
 IR Inten    --      2.5081                 3.4628                34.0192

                     73                     74                     75
                      A                      A                      A
 Frequencies --   3562.0798              3661.4667              3664.4461
 Red. masses --      1.0485                 1.0982                 1.0984
 Frc consts  --      7.8382                 8.6746                 8.6899
 IR Inten    --     32.7888                24.3051                23.6727

 - Thermochemistry -
 -------------------
 Temperature   298.150 Kelvin.  Pressure   1.00000 Atm.
 Atom     1 has atomic number  7 and mass  14.00307

 Molecular mass:   200.09496 amu.
 Principal axes and moments of inertia in atomic units:
                           1         2         3
     Eigenvalues --   878.939197005.681827240.73405
           X            0.99998  -0.00514   0.00222
           Y            0.00515   0.99998  -0.00316
           Z           -0.00220   0.00317   0.99999
 This molecule is an asymmetric top.
 Rotational symmetry number  1.
 Warning -- assumption of classical behavior for rotation
           may cause significant error
 Rotational temperatures (Kelvin)      0.09854     0.01236     0.01196
 Rotational constants (GHZ):           2.05332     0.25761     0.24925
 Zero-point vibrational energy     573237.6 (Joules/Mol)
                                  137.00708 (Kcal/Mol)
 Warning -- explicit consideration of  20 degrees of freedom as
           vibrations may cause significant error
 Vibrational temperatures:     11.99    47.86    82.33   242.57   285.30
          (Kelvin)            328.01   342.51   443.36   467.82   489.26
                              507.36   599.49   615.88   628.27   662.02
                              732.71   760.40   781.35   839.66   875.93
                              893.88   921.70   942.58  1002.36  1036.78
                             1088.89  1104.58  1145.90  1181.36  1207.11
                             1220.68  1224.24  1241.42  1358.64  1365.94
                             1385.94  1413.09  1448.58  1476.15  1566.89
                             1578.29  1635.12  1652.65  1683.91  1706.28
                             1725.73  1796.04  1889.66  1900.50  1905.13
                             1934.44  1960.15  1974.21  2122.67  2166.73
                             2203.06  2229.13  2346.28  2350.02  2377.42
                             2383.90  2397.04  2404.80  4574.50  4579.85
                             4580.01  4595.58  4598.69  4612.73  4615.03
                             4651.28  5122.31  5125.04  5268.03  5272.32

 Zero-point correction=                           0.218335 (Hartree/Particle)
 Thermal correction to Energy=                    0.231281
 Thermal correction to Enthalpy=                  0.232226
 Thermal correction to Gibbs Free Energy=         0.176892
 Sum of electronic and zero-point Energies=           -649.038923
 Sum of electronic and thermal Energies=              -649.025976
 Sum of electronic and thermal Enthalpies=            -649.025032
 Sum of electronic and thermal Free Energies=         -649.080366

                     E (Thermal)             CV                S
                      KCal/Mol        Cal/Mol-Kelvin    Cal/Mol-Kelvin
 Total                  145.131             51.975            116.460
 Electronic               0.000              0.000              0.000
 Translational            0.889              2.981             41.786
 Rotational               0.889              2.981             32.167
 Vibrational            143.354             46.013             42.508
 Vibration     1          0.593              1.987              8.374
 Vibration     2          0.594              1.983              5.625
 Vibration     3          0.596              1.975              4.551
 Vibration     4          0.625              1.881              2.451
 Vibration     5          0.637              1.842              2.149
 Vibration     6          0.651              1.798              1.895
 Vibration     7          0.656              1.782              1.817
 Vibration     8          0.698              1.658              1.372
 Vibration     9          0.709              1.625              1.284
 Vibration    10          0.720              1.595              1.212
 Vibration    11          0.729              1.570              1.154
 Vibration    12          0.780              1.434              0.903
 Vibration    13          0.790              1.409              0.865
 Vibration    14          0.797              1.390              0.837
 Vibration    15          0.818              1.338              0.766
 Vibration    16          0.864              1.229              0.635
 Vibration    17          0.883              1.187              0.591
 Vibration    18          0.898              1.155              0.559
 Vibration    19          0.940              1.067              0.479
 Vibration    20          0.968              1.013              0.435

 Optimization completed.
    -- Stationary point found.
 Normal termination of Gaussian 16 at Sun Jul 21 13:48:08 2024.
 Gaussian 16:  ES64L-G16RevA.03 25-Dec-2016

 ----------------------------------------------------------------------
 # TD(NStates=10, Root=1) B3LYP/6-31G** SCRF=(Solvent=water) volume pop
 =NPA density=current Geom=AllCheck Guess=Read
 ----------------------------------------------------------------------

 Structure from the checkpoint file:  "ZBMISJGHVWNWTE-UHFFFAOYSA-N_conf_3_2.chk"
 ----------------------------------
 ZBMISJGHVWNWTE-UHFFFAOYSA-N_conf_3
 ----------------------------------
 Charge =  0 Multiplicity = 1

                         Standard orientation:
 ---------------------------------------------------------------------
 Center     Atomic      Atomic             Coordinates (Angstroms)
 Number     Number       Type             X           Y           Z
 ---------------------------------------------------------------------
      1          7           0       -5.122697    0.514455    0.027210
      2          6           0       -3.772656    0.158553    0.017591
      3          6           0       -3.118170   -0.154159   -1.188603
      4          6           0       -1.789268   -0.572821   -1.191245
      5          6           0       -1.091852   -0.687547    0.010732
      6          8           0        0.209426   -1.188383    0.010226
      7          6           0        1.276619   -0.311934   -0.015206
      8          6           0        1.140227    1.077571   -0.089301
      9          6           0        2.304331    1.852195   -0.108942
     10          6           0        3.569271    1.275757   -0.058823
     11          6           0        3.697983   -0.126167    0.013903
     12          7           0        4.958125   -0.724367    0.000120
     13          6           0        2.536691   -0.912987    0.036684
     14          6           0       -1.723836   -0.384635    1.216771
     15          6           0       -3.051837    0.035799    1.220559
     16          1           0       -5.409778    1.060308    0.829753
     17          1           0       -5.456002    0.932465   -0.832258
     18          1           0       -3.657816   -0.070633   -2.127976
     19          1           0       -1.290254   -0.815269   -2.124230
     20          1           0        0.161725    1.538896   -0.128337
     21          1           0        2.216489    2.933888   -0.162695
     22          1           0        4.459793    1.897461   -0.076337
     23          1           0        4.995364   -1.649384    0.408938
     24          1           0        5.706529   -0.140002    0.350169
     25          1           0        2.600434   -1.995526    0.093729
     26          1           0       -1.174929   -0.481430    2.148236
     27          1           0       -3.539969    0.267935    2.163177
 ---------------------------------------------------------------------

 SCF Done:  E(RB3LYP) =  -649.257257346     A.U. after    1 cycles

 Excitation energies and oscillator strengths:

 Excited State   1:      Singlet-A      4.5934 eV  269.92 nm  f=0.0847  <S**2>=0.000
      50 -> 56         0.16419
      52 -> 54        -0.46279
      53 -> 54         0.49915
 This state for optimization and/or second-order correction.
 Total Energy, E(TD-HF/TD-DFT) =  -649.088452832
 Copying the excited state density for this state as the 1-particle RhoCI density.

 Excited State   2:      Singlet-A      4.6700 eV  265.49 nm  f=0.1307  <S**2>=0.000
      51 -> 57         0.13380
      52 -> 54         0.48892
      53 -> 54         0.44961
      53 -> 55        -0.15375

 Excited State   3:      Singlet-A      4.9963 eV  248.15 nm  f=0.0257  <S**2>=0.000
      51 -> 57        -0.20816
      52 -> 54         0.13044
      52 -> 55         0.28703
      53 -> 54         0.16813
      53 -> 55         0.55591

 Excited State   4:      Singlet-A      5.1836 eV  239.18 nm  f=0.0068  <S**2>=0.000
      52 -> 55         0.60736
      53 -> 55        -0.32807

 Excited State   5:      Singlet-A      5.2751 eV  235.04 nm  f=0.0089  <S**2>=0.000
      51 -> 56         0.10998
      52 -> 56         0.31000
      53 -> 56         0.61536

 Excited State   6:      Singlet-A      5.3029 eV  233.81 nm  f=0.0053  <S**2>=0.000
      51 -> 54         0.68901

 Excited State   7:      Singlet-A      5.4549 eV  227.29 nm  f=0.5727  <S**2>=0.000
      50 -> 54         0.12504
      51 -> 57         0.12209
      52 -> 56         0.58520
      52 -> 57        -0.11786
      53 -> 56        -0.27755
      53 -> 57         0.15467

 Excited State   8:      Singlet-A      5.5422 eV  223.71 nm  f=0.0818  <S**2>=0.000
      52 -> 56         0.14497
      52 -> 57         0.54620
      53 -> 57        -0.39937

 Excited State   9:      Singlet-A      5.6521 eV  219.36 nm  f=0.2389  <S**2>=0.000
      51 -> 55         0.32326
      52 -> 57         0.36501
      53 -> 55        -0.11580
      53 -> 57         0.47497

 Excited State  10:      Singlet-A      5.8086 eV  213.45 nm  f=0.0008  <S**2>=0.000
      51 -> 56         0.68858
      53 -> 56        -0.10972

 The electronic state is 1-A.
 Alpha  occ. eigenvalues --  -19.18257 -14.33788 -14.33687 -10.24928 -10.23817
 Alpha  occ. eigenvalues --  -10.23105 -10.22991 -10.19292 -10.19275 -10.19000
 Alpha  occ. eigenvalues --  -10.18845 -10.18833 -10.17800 -10.17713 -10.17667
 Alpha  occ. eigenvalues --   -1.06870  -0.91633  -0.91458  -0.84414  -0.82720
 Alpha  occ. eigenvalues --   -0.75185  -0.74939  -0.72481  -0.71057  -0.62647
 Alpha  occ. eigenvalues --   -0.62059  -0.60828  -0.57799  -0.54181  -0.51419
 Alpha  occ. eigenvalues --   -0.51081  -0.50778  -0.49005  -0.46465  -0.44889
 Alpha  occ. eigenvalues --   -0.44516  -0.44080  -0.42203  -0.41974  -0.40963
 Alpha  occ. eigenvalues --   -0.39525  -0.38018  -0.37632  -0.36562  -0.35954
 Alpha  occ. eigenvalues --   -0.34526  -0.33705  -0.30213  -0.29486  -0.25591
 Alpha  occ. eigenvalues --   -0.22688  -0.20389  -0.20265
 Alpha virt. eigenvalues --   -0.00884   0.00875   0.01314   0.02157   0.08915
 Alpha virt. eigenvalues --    0.09437   0.10512   0.11131   0.13032   0.13359
 Alpha virt. eigenvalues --    0.15910   0.16577   0.17130   0.17179   0.17474

 Mulliken charges:
               1
     1  N   -0.569903
     2  C    0.263873
     3  C   -0.162272
     4  C   -0.163262
     5  C    0.324902
     6  O   -0.583690
     7  C    0.317171
     8  C   -0.144238
     9  C   -0.133467
    10  C   -0.135904
    11  C    0.259056
    12  N   -0.673702
    13  C   -0.181394
    14  C   -0.157817
    15  C   -0.168668
    16  H    0.315233
    17  H    0.315480
    18  H    0.088642
    19  H    0.086025
    20  H    0.099657
    21  H    0.094620
    22  H    0.087441
    23  H    0.278489
    24  H    0.279278
    25  H    0.090487
    26  H    0.087123
    27  H    0.086840
 Sum of Mulliken charges =  -0.00000

 Dipole moment (field-independent basis, Debye):
    X=             -3.7998    Y=              2.6831    Z=              1.2401  Tot=              4.8141
 Quadrupole moment (field-independent basis, Debye-Ang):
   XX=            -35.6697   YY=            -84.0848   ZZ=            -86.1766
   XY=            -16.2769   XZ=              8.1656   YZ=             -1.1317

 Summary of Natural Population Analysis:

                                       Natural Population
                Natural  -----------------------------------------------
    Atom  No    Charge         Core      Valence    Rydberg      Total
 -----------------------------------------------------------------------
      N    1   -0.67343      1.99946     5.66423    0.00974     7.67343
      C    2    0.18092      1.99897     3.80210    0.01801     5.81908
      C    3   -0.32890      1.99906     4.31085    0.01898     6.32890
      C    4   -0.36683      1.99901     4.34810    0.01972     6.36683
      C    5    0.36465      1.99870     3.61319    0.02346     5.63535
      O    6   -0.51294      1.99969     6.50185    0.01140     8.51294
      C    7    0.32245      1.99874     3.65673    0.02207     5.67755
      C    8   -0.34685      1.99901     4.33549    0.01235     6.34685
      C    9   -0.23980      1.99913     4.22561    0.01506     6.23980
      C   10   -0.31742      1.99903     4.30556    0.01283     6.31742
      C   11    0.17847      1.99900     3.80489    0.01765     5.82153
      N   12   -0.85190      1.99951     5.84067    0.01171     7.85190
      C   13   -0.36347      1.99896     4.35082    0.01368     6.36347
      C   14   -0.36016      1.99901     4.34171    0.01945     6.36016
      C   15   -0.34233      1.99907     4.32412    0.01914     6.34233
      H   16    0.43276      0.00000     0.56435    0.00289     0.56724
      H   17    0.43298      0.00000     0.56420    0.00282     0.56702
      H   18    0.23939      0.00000     0.75882    0.00179     0.76061
      H   19    0.24692      0.00000     0.75142    0.00166     0.75308
      H   20    0.25383      0.00000     0.74470    0.00147     0.74617
      H   21    0.24525      0.00000     0.75337    0.00139     0.75475
      H   22    0.24171      0.00000     0.75682    0.00148     0.75829
      H   23    0.41478      0.00000     0.58275    0.00247     0.58522
      H   24    0.41555      0.00000     0.58212    0.00233     0.58445
      H   25    0.24815      0.00000     0.74995    0.00190     0.75185
      H   26    0.24739      0.00000     0.75100    0.00161     0.75261
      H   27    0.23885      0.00000     0.75941    0.00174     0.76115
 =======================================================================
   * Total *   -0.00000     29.98636    75.74484    0.26880   106.00000

 Normal termination of Gaussian 16 at Sun Jul 21 14:00:09 2024.
