 Gaussian 16, Revision A.03,

 -------------------------------------------------------
 # opt=CalcFc B3LYP/6-31G** SCRF=(Solvent=water) scf=xqc
 -------------------------------------------------------

 ----------------------------------
 ZBMISJGHVWNWTE-UHFFFAOYSA-N_conf_2
 ----------------------------------
 Symbolic Z-matrix:
 Charge =  0 Multiplicity = 1

 SCF Done:  E(RB3LYP) =  -649.253273565     A.U. after   12 cycles
 SCF Done:  E(RB3LYP) =  -649.256650647     A.U. after   11 cycles
 SCF Done:  E(RB3LYP) =  -649.257069608     A.U. after   12 cycles
 SCF Done:  E(RB3LYP) =  -649.257196091     A.U. after   10 cycles
 SCF Done:  E(RB3LYP) =  -649.257234680     A.U. after   10 cycles
 SCF Done:  E(RB3LYP) =  -649.257247097     A.U. after    9 cycles
 SCF Done:  E(RB3LYP) =  -649.257276388     A.U. after   10 cycles
 SCF Done:  E(RB3LYP) =  -649.257280991     A.U. after    8 cycles
 SCF Done:  E(RB3LYP) =  -649.257279675     A.U. after    9 cycles
 SCF Done:  E(RB3LYP) =  -649.257282202     A.U. after    9 cycles
 SCF Done:  E(RB3LYP) =  -649.257282302     A.U. after    7 cycles
 SCF Done:  E(RB3LYP) =  -649.257282331     A.U. after    7 cycles
 Optimization completed.
    -- Stationary point found.
 Normal termination of Gaussian 16 at Sun Jul 21 13:07:23 2024.

 ----------------------------------------------------------------------
 # freq B3LYP/6-31G** SCRF=(Solvent=water) volume NMR pop=NPA density=c
 urrent Geom=AllCheck Guess=Read
 ----------------------------------------------------------------------

 Structure from the checkpoint file:  "ZBMISJGHVWNWTE-UHFFFAOYSA-N_conf_2_1.chk"
 ----------------------------------
 ZBMISJGHVWNWTE-UHFFFAOYSA-N_conf_2
 ----------------------------------
 Charge =  0 Multiplicity = 1

 SCF Done:  E(RB3LYP) =  -649.257282331     A.U. after    1 cycles

      1  N    Isotropic =   200.0573   Anisotropy =    73.6767

      2  C    Isotropic =    51.7650   Anisotropy =   161.1921

      3  C    Isotropic =    81.5713   Anisotropy =   130.5841

      4  C    Isotropic =    72.4530   Anisotropy =   147.3451

      5  C    Isotropic =    52.1754   Anisotropy =   102.0996

      6  O    Isotropic =   185.0195   Anisotropy =    57.3214

      7  C    Isotropic =    35.4868   Anisotropy =   120.7173

      8  C    Isotropic =    94.6178   Anisotropy =   131.9165

      9  C    Isotropic =    66.8920   Anisotropy =   165.3293

     10  C    Isotropic =    89.5126   Anisotropy =   121.8136

     11  C    Isotropic =    48.4254   Anisotropy =   158.8069

     12  N    Isotropic =   199.2405   Anisotropy =    74.5659

     13  C    Isotropic =    95.3877   Anisotropy =   100.0066

     14  C    Isotropic =    72.5050   Anisotropy =   147.3953

     15  C    Isotropic =    81.5486   Anisotropy =   130.5819

     16  H    Isotropic =    28.5328   Anisotropy =    12.1791

     17  H    Isotropic =    28.5300   Anisotropy =    12.1987

     18  H    Isotropic =    25.0426   Anisotropy =     5.3884

     19  H    Isotropic =    24.7695   Anisotropy =     6.8479

     20  H    Isotropic =    26.1409   Anisotropy =    10.2425

     21  H    Isotropic =    24.7587   Anisotropy =     4.9301

     22  H    Isotropic =    25.5372   Anisotropy =     4.5305

     23  H    Isotropic =    28.5458   Anisotropy =    11.7028

     24  H    Isotropic =    28.5518   Anisotropy =    12.5149

     25  H    Isotropic =    25.5546   Anisotropy =     7.0318

     26  H    Isotropic =    24.7955   Anisotropy =     6.8740

     27  H    Isotropic =    25.0497   Anisotropy =     5.4242

  Exact polarizability: 281.019  25.292 143.078   1.102   0.049 131.850
 Approx polarizability: 309.488  34.718 183.730   0.062  -0.563 166.346

                      1                      2                      3
                      A                      A                      A
 Frequencies --     15.8213                36.1387                57.7774
 Red. masses --      4.8478                 3.9316                 5.3472
 Frc consts  --      0.0007                 0.0030                 0.0105
 IR Inten    --      3.7410                 0.2558                 2.2788

                      4                      5                      6
                      A                      A                      A
 Frequencies --    169.7167               198.2595               228.9454
 Red. masses --      4.9344                 4.6076                 3.6806
 Frc consts  --      0.0837                 0.1067                 0.1137
 IR Inten    --      1.9004                 2.2684                 6.3325

                      7                      8                      9
                      A                      A                      A
 Frequencies --    238.1428               312.2833               325.5376
 Red. masses --      4.9502                 1.0428                 1.0619
 Frc consts  --      0.1654                 0.0599                 0.0663
 IR Inten    --      2.7801                33.3679                34.9801

                     10                     11                     12
                      A                      A                      A
 Frequencies --    341.3544               352.2581               416.8651
 Red. masses --      4.8161                 5.4228                 3.3834
 Frc consts  --      0.3306                 0.3965                 0.3464
 IR Inten    --      2.7479                 2.3713                 5.5189

                     13                     14                     15
                      A                      A                      A
 Frequencies --    428.4003               437.9627               460.3519
 Red. masses --      3.1694                 3.6595                 2.9812
 Frc consts  --      0.3427                 0.4136                 0.3722
 IR Inten    --      0.2128                 6.3344                13.7255

                     16                     17                     18
                      A                      A                      A
 Frequencies --    512.0052               527.9042               541.4813
 Red. masses --      2.4955                 6.8979                 6.3128
 Frc consts  --      0.3854                 1.1326                 1.0905
 IR Inten    --     67.3003                 3.5790               104.7186

                     19                     20                     21
                      A                      A                      A
 Frequencies --    583.8511               605.9281               629.2581
 Red. masses --      1.6085                 2.3007                 1.9587
 Frc consts  --      0.3230                 0.4977                 0.4570
 IR Inten    --    359.4120               276.7280               223.4513

                     22                     23                     24
                      A                      A                      A
 Frequencies --    640.9962               655.4158               696.7562
 Red. masses --      3.0419                 6.7765                 2.3700
 Frc consts  --      0.7364                 1.7151                 0.6779
 IR Inten    --    175.8165                 2.0450                10.3559

                     25                     26                     27
                      A                      A                      A
 Frequencies --    715.8619               760.9214               767.8359
 Red. masses --      4.8816                 4.7949                 1.4169
 Frc consts  --      1.4739                 1.6357                 0.4922
 IR Inten    --      3.2435                17.4398                72.4392

                     28                     29                     30
                      A                      A                      A
 Frequencies --    798.8740               821.1909               838.7079
 Red. masses --      4.3779                 1.2533                 1.5407
 Frc consts  --      1.6462                 0.4980                 0.6386
 IR Inten    --      9.3298                 0.1546                52.8621

                     31                     32                     33
                      A                      A                      A
 Frequencies --    846.9068               848.6501               865.1156
 Red. masses --      1.9979                 1.4396                 4.6568
 Frc consts  --      0.8443                 0.6109                 2.0534
 IR Inten    --     67.4317                 5.6297                18.0996

                     34                     35                     36
                      A                      A                      A
 Frequencies --    944.5232               949.3094               963.3076
 Red. masses --      1.3056                 1.3102                 1.2484
 Frc consts  --      0.6863                 0.6957                 0.6826
 IR Inten    --      0.8318                 0.0147                 0.0393

                     37                     38                     39
                      A                      A                      A
 Frequencies --    982.2395              1006.7707              1025.9256
 Red. masses --      2.8157                 5.8972                 2.5992
 Frc consts  --      1.6006                 3.5217                 1.6118
 IR Inten    --     78.7628                 6.7736                14.3518

                     40                     41                     42
                      A                      A                      A
 Frequencies --   1092.3381              1096.5410              1136.5248
 Red. masses --      1.4283                 1.5754                 1.2639
 Frc consts  --      1.0041                 1.1161                 0.9618
 IR Inten    --      5.3069                 4.7132                 2.5486

                     43                     44                     45
                      A                      A                      A
 Frequencies --   1148.3340              1170.2993              1185.9925
 Red. masses --      1.1804                 1.5457                 1.1295
 Frc consts  --      0.9171                 1.2473                 0.9361
 IR Inten    --     18.9512               166.1199                17.8300

                     46                     47                     48
                      A                      A                      A
 Frequencies --   1199.5588              1248.4665              1313.5186
 Red. masses --      1.4253                 3.5054                 3.2182
 Frc consts  --      1.2084                 3.2191                 3.2714
 IR Inten    --     22.0346               657.2397                45.6459

                     49                     50                     51
                      A                      A                      A
 Frequencies --   1320.9052              1324.2371              1344.4177
 Red. masses --      2.3999                 1.6848                 2.1251
 Frc consts  --      2.4671                 1.7407                 2.2630
 IR Inten    --     38.1206                 1.1124                13.6279

                     52                     53                     54
                      A                      A                      A
 Frequencies --   1363.2503              1372.1302              1475.7968
 Red. masses --      3.2316                 5.0820                 2.9378
 Frc consts  --      3.5385                 5.6373                 3.7699
 IR Inten    --      9.3480                61.1939                 0.3353

                     55                     56                     57
                      A                      A                      A
 Frequencies --   1505.7876              1531.1618              1549.6512
 Red. masses --      3.0211                 2.6007                 2.6811
 Frc consts  --      4.0359                 3.5924                 3.7934
 IR Inten    --     64.8601               310.4395               283.3158

                     58                     59                     60
                      A                      A                      A
 Frequencies --   1630.8385              1633.3510              1652.6575
 Red. masses --      6.0556                 6.5303                 2.0227
 Frc consts  --      9.4892                10.2646                 3.2550
 IR Inten    --    124.0137                 0.0831                64.1643

                     61                     62                     63
                      A                      A                      A
 Frequencies --   1657.4935              1666.1408              1671.4996
 Red. masses --      1.4008                 1.8332                 3.0265
 Frc consts  --      2.2675                 2.9983                 4.9819
 IR Inten    --     15.2842               117.4114               392.7018

                     64                     65                     66
                      A                      A                      A
 Frequencies --   3179.3559              3184.0598              3184.1764
 Red. masses --      1.0867                 1.0885                 1.0888
 Frc consts  --      6.4719                 6.5021                 6.5042
 IR Inten    --     14.1245                29.4074                20.2793

                     67                     68                     69
                      A                      A                      A
 Frequencies --   3193.9064              3196.0978              3206.2515
 Red. masses --      1.0921                 1.0933                 1.0941
 Frc consts  --      6.5638                 6.5802                 6.6270
 IR Inten    --     33.3884                14.4137                21.5456

                     70                     71                     72
                      A                      A                      A
 Frequencies --   3207.8406              3232.8742              3561.3438
 Red. masses --      1.0945                 1.0922                 1.0486
 Frc consts  --      6.6356                 6.7254                 7.8358
 IR Inten    --      2.0284                 3.4047                36.5245

                     73                     74                     75
                      A                      A                      A
 Frequencies --   3562.0280              3662.7714              3664.3244
 Red. masses --      1.0485                 1.0981                 1.0983
 Frc consts  --      7.8381                 8.6801                 8.6891
 IR Inten    --     31.9557                23.8807                23.5615

 - Thermochemistry -
 -------------------
 Temperature   298.150 Kelvin.  Pressure   1.00000 Atm.
 Atom     1 has atomic number  7 and mass  14.00307

 Molecular mass:   200.09496 amu.
 Principal axes and moments of inertia in atomic units:
                           1         2         3
     Eigenvalues --   880.094377003.320647238.16285
           X            1.00000   0.00188   0.00176
           Y           -0.00189   0.99997   0.00762
           Z           -0.00175  -0.00762   0.99997
 This molecule is an asymmetric top.
 Rotational symmetry number  1.
 Warning -- assumption of classical behavior for rotation
           may cause significant error
 Rotational temperatures (Kelvin)      0.09841     0.01237     0.01197
 Rotational constants (GHZ):           2.05062     0.25770     0.24934
 Zero-point vibrational energy     573462.7 (Joules/Mol)
                                  137.06087 (Kcal/Mol)
 Warning -- explicit consideration of  20 degrees of freedom as
           vibrations may cause significant error
 Vibrational temperatures:     22.76    52.00    83.13   244.18   285.25
          (Kelvin)            329.40   342.63   449.31   468.38   491.13
                              506.82   599.78   616.37   630.13   662.34
                              736.66   759.54   779.07   840.03   871.80
                              905.36   922.25   943.00  1002.48  1029.97
                             1094.80  1104.74  1149.40  1181.51  1206.71
                             1218.51  1221.02  1244.71  1358.96  1365.84
                             1385.98  1413.22  1448.52  1476.08  1571.63
                             1577.68  1635.21  1652.20  1683.80  1706.38
                             1725.90  1796.26  1889.86  1900.49  1905.28
                             1934.32  1961.41  1974.19  2123.34  2166.49
                             2203.00  2229.60  2346.41  2350.03  2377.81
                             2384.76  2397.21  2404.92  4574.38  4581.15
                             4581.32  4595.32  4598.47  4613.08  4615.37
                             4651.38  5123.98  5124.96  5269.91  5272.15

 Zero-point correction=                           0.218420 (Hartree/Particle)
 Thermal correction to Energy=                    0.231327
 Thermal correction to Enthalpy=                  0.232272
 Thermal correction to Gibbs Free Energy=         0.177662
 Sum of electronic and zero-point Energies=           -649.038862
 Sum of electronic and thermal Energies=              -649.025955
 Sum of electronic and thermal Enthalpies=            -649.025011
 Sum of electronic and thermal Free Energies=         -649.079620

                     E (Thermal)             CV                S
                      KCal/Mol        Cal/Mol-Kelvin    Cal/Mol-Kelvin
 Total                  145.160             51.938            114.936
 Electronic               0.000              0.000              0.000
 Translational            0.889              2.981             41.786
 Rotational               0.889              2.981             32.167
 Vibrational            143.383             45.976             40.983
 Vibration     1          0.593              1.986              7.100
 Vibration     2          0.594              1.982              5.460
 Vibration     3          0.596              1.974              4.532
 Vibration     4          0.625              1.880              2.439
 Vibration     5          0.637              1.842              2.149
 Vibration     6          0.652              1.797              1.887
 Vibration     7          0.656              1.782              1.817
 Vibration     8          0.701              1.650              1.350
 Vibration     9          0.710              1.624              1.282
 Vibration    10          0.721              1.593              1.206
 Vibration    11          0.729              1.571              1.156
 Vibration    12          0.780              1.434              0.903
 Vibration    13          0.790              1.408              0.864
 Vibration    14          0.798              1.387              0.833
 Vibration    15          0.818              1.338              0.765
 Vibration    16          0.867              1.223              0.629
 Vibration    17          0.883              1.188              0.592
 Vibration    18          0.897              1.158              0.562
 Vibration    19          0.941              1.066              0.478
 Vibration    20          0.965              1.019              0.440

 Optimization completed.
    -- Stationary point found.
 Normal termination of Gaussian 16 at Sun Jul 21 13:21:04 2024.
 Gaussian 16:  ES64L-G16RevA.03 25-Dec-2016

 ----------------------------------------------------------------------
 # TD(NStates=10, Root=1) B3LYP/6-31G** SCRF=(Solvent=water) volume pop
 =NPA density=current Geom=AllCheck Guess=Read
 ----------------------------------------------------------------------

 Structure from the checkpoint file:  "ZBMISJGHVWNWTE-UHFFFAOYSA-N_conf_2_2.chk"
 ----------------------------------
 ZBMISJGHVWNWTE-UHFFFAOYSA-N_conf_2
 ----------------------------------
 Charge =  0 Multiplicity = 1

                         Standard orientation:
 ---------------------------------------------------------------------
 Center     Atomic      Atomic             Coordinates (Angstroms)
 Number     Number       Type             X           Y           Z
 ---------------------------------------------------------------------
      1          7           0        5.082041    0.650494   -0.015999
      2          6           0        3.772351    0.167138   -0.008813
      3          6           0        3.093991   -0.057877    1.203799
      4          6           0        1.765517   -0.477422    1.210619
      5          6           0        1.092027   -0.679917    0.006320
      6          8           0       -0.207937   -1.184351    0.013986
      7          6           0       -1.277211   -0.310114    0.011876
      8          6           0       -1.143876    1.081638    0.015343
      9          6           0       -2.309825    1.853710    0.010158
     10          6           0       -3.573644    1.272705    0.002963
     11          6           0       -3.699270   -0.131378    0.000627
     12          7           0       -4.957537   -0.731030    0.058266
     13          6           0       -2.536138   -0.915790    0.003959
     14          6           0        1.748708   -0.467292   -1.205613
     15          6           0        3.077072   -0.047614   -1.213751
     16          1           0        5.606670    0.436586   -0.854717
     17          1           0        5.618791    0.428937    0.813020
     18          1           0        3.614734    0.095860    2.144974
     19          1           0        1.250239   -0.658067    2.148769
     20          1           0       -0.166281    1.546464    0.019564
     21          1           0       -2.224360    2.936926    0.009138
     22          1           0       -4.465644    1.892524    0.000106
     23          1           0       -4.996736   -1.674939   -0.304596
     24          1           0       -5.711496   -0.166256   -0.311509
     25          1           0       -2.597521   -1.999972    0.001378
     26          1           0        1.220565   -0.640163   -2.138066
     27          1           0        3.584790    0.113931   -2.160740
 ---------------------------------------------------------------------

 SCF Done:  E(RB3LYP) =  -649.257282331     A.U. after    1 cycles

 Excitation energies and oscillator strengths:

 Excited State   1:      Singlet-A      4.5985 eV  269.62 nm  f=0.0792  <S**2>=0.000
      50 -> 56        -0.17022
      52 -> 54         0.66721
      53 -> 54         0.13450
 This state for optimization and/or second-order correction.
 Total Energy, E(TD-HF/TD-DFT) =  -649.088292134
 Copying the excited state density for this state as the 1-particle RhoCI density.

 Excited State   2:      Singlet-A      4.6653 eV  265.76 nm  f=0.1366  <S**2>=0.000
      51 -> 57        -0.13835
      52 -> 54        -0.13188
      53 -> 54         0.65187
      53 -> 55         0.16621

 Excited State   3:      Singlet-A      4.9999 eV  247.97 nm  f=0.0247  <S**2>=0.000
      51 -> 57        -0.21205
      53 -> 54        -0.20774
      53 -> 55         0.61897

 Excited State   4:      Singlet-A      5.1839 eV  239.17 nm  f=0.0056  <S**2>=0.000
      52 -> 55         0.68445

 Excited State   5:      Singlet-A      5.2774 eV  234.94 nm  f=0.0021  <S**2>=0.000
      51 -> 56         0.10750
      53 -> 56         0.68581

 Excited State   6:      Singlet-A      5.3009 eV  233.89 nm  f=0.0063  <S**2>=0.000
      51 -> 54         0.69042

 Excited State   7:      Singlet-A      5.4637 eV  226.92 nm  f=0.6381  <S**2>=0.000
      50 -> 54         0.13645
      51 -> 57         0.13938
      52 -> 56         0.66053

 Excited State   8:      Singlet-A      5.5329 eV  224.08 nm  f=0.0042  <S**2>=0.000
      52 -> 57         0.69274
      53 -> 57         0.10953

 Excited State   9:      Singlet-A      5.6511 eV  219.40 nm  f=0.2542  <S**2>=0.000
      51 -> 55         0.32449
      53 -> 55        -0.13811
      53 -> 57         0.59159

 Excited State  10:      Singlet-A      5.8048 eV  213.59 nm  f=0.0003  <S**2>=0.000
      51 -> 56         0.69383
      53 -> 56        -0.11176

 The electronic state is 1-A.
 Alpha  occ. eigenvalues --  -19.18255 -14.33788 -14.33686 -10.24926 -10.23815
 Alpha  occ. eigenvalues --  -10.23103 -10.22989 -10.19288 -10.19283 -10.18997
 Alpha  occ. eigenvalues --  -10.18840 -10.18837 -10.17798 -10.17711 -10.17661
 Alpha  occ. eigenvalues --   -1.06868  -0.91637  -0.91456  -0.84414  -0.82718
 Alpha  occ. eigenvalues --   -0.75181  -0.74941  -0.72479  -0.71053  -0.62639
 Alpha  occ. eigenvalues --   -0.62063  -0.60827  -0.57797  -0.54177  -0.51434
 Alpha  occ. eigenvalues --   -0.51083  -0.50777  -0.48994  -0.46468  -0.44886
 Alpha  occ. eigenvalues --   -0.44521  -0.44062  -0.42203  -0.41976  -0.40648
 Alpha  occ. eigenvalues --   -0.39522  -0.38915  -0.37343  -0.36316  -0.35954
 Alpha  occ. eigenvalues --   -0.34415  -0.33693  -0.30284  -0.29484  -0.25593
 Alpha  occ. eigenvalues --   -0.22679  -0.20358  -0.20301
 Alpha virt. eigenvalues --   -0.00884   0.00883   0.01319   0.02152   0.09002
 Alpha virt. eigenvalues --    0.09416   0.10408   0.11157   0.13017   0.13333
 Alpha virt. eigenvalues --    0.15988   0.16438   0.17145   0.17187   0.17446

 Mulliken charges:
               1
     1  N   -0.562176
     2  C    0.263610
     3  C   -0.161873
     4  C   -0.160275
     5  C    0.329207
     6  O   -0.585821
     7  C    0.316113
     8  C   -0.149661
     9  C   -0.133099
    10  C   -0.140397
    11  C    0.258775
    12  N   -0.678373
    13  C   -0.182771
    14  C   -0.159206
    15  C   -0.163099
    16  H    0.318736
    17  H    0.318743
    18  H    0.090580
    19  H    0.088349
    20  H    0.096102
    21  H    0.092431
    22  H    0.083792
    23  H    0.276185
    24  H    0.276977
    25  H    0.088546
    26  H    0.088441
    27  H    0.090163
 Sum of Mulliken charges =  -0.00000

 Dipole moment (field-independent basis, Debye):
    X=              5.5939    Y=              0.3617    Z=             -1.3409  Tot=              5.7637
 Quadrupole moment (field-independent basis, Debye-Ang):
   XX=            -26.9913   YY=            -87.4352   ZZ=            -86.2163
   XY=              5.0574   XZ=              6.9796   YZ=              1.2285

 Summary of Natural Population Analysis:

                                       Natural Population
                Natural  -----------------------------------------------
    Atom  No    Charge         Core      Valence    Rydberg      Total
 -----------------------------------------------------------------------
      N    1   -0.66016      1.99946     5.65118    0.00953     7.66016
      C    2    0.18083      1.99897     3.80219    0.01800     5.81917
      C    3   -0.33027      1.99907     4.31199    0.01921     6.33027
      C    4   -0.36399      1.99901     4.34526    0.01972     6.36399
      C    5    0.37290      1.99870     3.60489    0.02351     5.62710
      O    6   -0.51646      1.99969     6.50540    0.01137     8.51646
      C    7    0.32066      1.99874     3.65855    0.02206     5.67934
      C    8   -0.35791      1.99901     4.34661    0.01229     6.35791
      C    9   -0.23647      1.99913     4.22242    0.01491     6.23647
      C   10   -0.32628      1.99903     4.31449    0.01275     6.32628
      C   11    0.17740      1.99900     3.80596    0.01763     5.82260
      N   12   -0.85933      1.99951     5.84805    0.01177     7.85933
      C   13   -0.36274      1.99896     4.35027    0.01351     6.36274
      C   14   -0.36277      1.99901     4.34409    0.01967     6.36277
      C   15   -0.33282      1.99907     4.31451    0.01924     6.33282
      H   16    0.43461      0.00000     0.56255    0.00283     0.56539
      H   17    0.43463      0.00000     0.56254    0.00283     0.56537
      H   18    0.24031      0.00000     0.75791    0.00179     0.75969
      H   19    0.24811      0.00000     0.75025    0.00165     0.75189
      H   20    0.25234      0.00000     0.74619    0.00147     0.74766
      H   21    0.24407      0.00000     0.75454    0.00139     0.75593
      H   22    0.24033      0.00000     0.75819    0.00147     0.75967
      H   23    0.41343      0.00000     0.58411    0.00246     0.58657
      H   24    0.41422      0.00000     0.58344    0.00234     0.58578
      H   25    0.24707      0.00000     0.75102    0.00191     0.75293
      H   26    0.24814      0.00000     0.75022    0.00164     0.75186
      H   27    0.24016      0.00000     0.75807    0.00178     0.75984
 =======================================================================
   * Total *   -0.00000     29.98636    75.74489    0.26874   106.00000

 Normal termination of Gaussian 16 at Sun Jul 21 13:35:30 2024.
