 Gaussian 16, Revision A.03,

 -------------------------------------------------------
 # opt=CalcFc B3LYP/6-31G** SCRF=(Solvent=water) scf=xqc
 -------------------------------------------------------

 ----------------------------------
 ZBMISJGHVWNWTE-UHFFFAOYSA-N_conf_0
 ----------------------------------
 Symbolic Z-matrix:
 Charge =  0 Multiplicity = 1

 SCF Done:  E(RB3LYP) =  -649.253102722     A.U. after   12 cycles
 SCF Done:  E(RB3LYP) =  -649.256593215     A.U. after   11 cycles
 SCF Done:  E(RB3LYP) =  -649.257034237     A.U. after   12 cycles
 SCF Done:  E(RB3LYP) =  -649.255804633     A.U. after   12 cycles
 SCF Done:  E(RB3LYP) =  -649.257199644     A.U. after   10 cycles
 SCF Done:  E(RB3LYP) =  -649.257217775     A.U. after    9 cycles
 SCF Done:  E(RB3LYP) =  -649.257220763     A.U. after    8 cycles
 SCF Done:  E(RB3LYP) =  -649.257232648     A.U. after   10 cycles
 SCF Done:  E(RB3LYP) =  -649.257231539     A.U. after   12 cycles
 SCF Done:  E(RB3LYP) =  -649.257248746     A.U. after   10 cycles
 SCF Done:  E(RB3LYP) =  -649.257253102     A.U. after    7 cycles
 SCF Done:  E(RB3LYP) =  -649.257253819     A.U. after    8 cycles
 SCF Done:  E(RB3LYP) =  -649.257253483     A.U. after    8 cycles
 SCF Done:  E(RB3LYP) =  -649.257256488     A.U. after    9 cycles
 SCF Done:  E(RB3LYP) =  -649.257256000     A.U. after    9 cycles
 SCF Done:  E(RB3LYP) =  -649.257257264     A.U. after    8 cycles
 SCF Done:  E(RB3LYP) =  -649.257257313     A.U. after    6 cycles
 SCF Done:  E(RB3LYP) =  -649.257257413     A.U. after    6 cycles
 Optimization completed.
    -- Stationary point found.
 Normal termination of Gaussian 16 at Sun Jul 21 13:00:10 2024.

 ----------------------------------------------------------------------
 # freq B3LYP/6-31G** SCRF=(Solvent=water) volume NMR pop=NPA density=c
 urrent Geom=AllCheck Guess=Read
 ----------------------------------------------------------------------

 Structure from the checkpoint file:  "ZBMISJGHVWNWTE-UHFFFAOYSA-N_conf_0_1.chk"
 ----------------------------------
 ZBMISJGHVWNWTE-UHFFFAOYSA-N_conf_0
 ----------------------------------
 Charge =  0 Multiplicity = 1

 SCF Done:  E(RB3LYP) =  -649.257257413     A.U. after    1 cycles

      1  N    Isotropic =   200.1627   Anisotropy =    74.1579

      2  C    Isotropic =    51.7932   Anisotropy =   161.2259

      3  C    Isotropic =    81.5855   Anisotropy =   130.7018

      4  C    Isotropic =    72.4730   Anisotropy =   147.0614

      5  C    Isotropic =    52.1899   Anisotropy =   102.2564

      6  O    Isotropic =   185.2787   Anisotropy =    58.6833

      7  C    Isotropic =    35.5424   Anisotropy =   120.6330

      8  C    Isotropic =    94.6339   Anisotropy =   131.9164

      9  C    Isotropic =    66.9135   Anisotropy =   165.3061

     10  C    Isotropic =    89.5207   Anisotropy =   121.8025

     11  C    Isotropic =    48.4253   Anisotropy =   158.8194

     12  N    Isotropic =   199.2329   Anisotropy =    74.5895

     13  C    Isotropic =    95.3769   Anisotropy =    99.9923

     14  C    Isotropic =    72.5193   Anisotropy =   147.7859

     15  C    Isotropic =    81.5007   Anisotropy =   130.5808

     16  H    Isotropic =    28.5274   Anisotropy =    12.1327

     17  H    Isotropic =    28.5352   Anisotropy =    12.1039

     18  H    Isotropic =    25.0396   Anisotropy =     5.3710

     19  H    Isotropic =    24.7646   Anisotropy =     6.7284

     20  H    Isotropic =    26.2030   Anisotropy =    10.2002

     21  H    Isotropic =    24.7797   Anisotropy =     4.9222

     22  H    Isotropic =    25.5468   Anisotropy =     4.5531

     23  H    Isotropic =    28.5447   Anisotropy =    11.7148

     24  H    Isotropic =    28.5539   Anisotropy =    12.4987

     25  H    Isotropic =    25.5512   Anisotropy =     7.0168

     26  H    Isotropic =    24.8016   Anisotropy =     6.9590

     27  H    Isotropic =    25.0502   Anisotropy =     5.4402

  Exact polarizability: 280.322 -26.068 144.016  -3.893  -1.322 131.605
 Approx polarizability: 310.387 -33.373 183.345  -3.490  -2.289 165.984

                      1                      2                      3
                      A                      A                      A
 Frequencies --      8.4106                33.2764                57.2491
 Red. masses --      5.1208                 3.8486                 5.2147
 Frc consts  --      0.0002                 0.0025                 0.0101
 IR Inten    --      1.2198                 1.7970                 1.9535

                      4                      5                      6
                      A                      A                      A
 Frequencies --    168.6235               198.2910               227.9797
 Red. masses --      5.0331                 4.6111                 3.6969
 Frc consts  --      0.0843                 0.1068                 0.1132
 IR Inten    --      1.5987                 2.6988                 6.1792

                      7                      8                      9
                      A                      A                      A
 Frequencies --    238.0598               308.1962               325.1479
 Red. masses --      5.0780                 1.0377                 1.0578
 Frc consts  --      0.1696                 0.0581                 0.0659
 IR Inten    --      2.0314                33.9198                36.3218

                     10                     11                     12
                      A                      A                      A
 Frequencies --    340.0387               352.6515               416.6691
 Red. masses --      4.8741                 5.0428                 3.4688
 Frc consts  --      0.3321                 0.3695                 0.3548
 IR Inten    --      2.3506                 5.6222                 1.2124

                     13                     14                     15
                      A                      A                      A
 Frequencies --    428.0644               436.6574               460.1307
 Red. masses --      3.1669                 3.6700                 2.9737
 Frc consts  --      0.3419                 0.4123                 0.3710
 IR Inten    --      0.5627                 6.0412                13.9030

                     16                     17                     18
                      A                      A                      A
 Frequencies --    509.2674               528.5029               543.0683
 Red. masses --      2.6503                 6.5943                 6.0394
 Frc consts  --      0.4050                 1.0852                 1.0494
 IR Inten    --    108.6097                10.2934                49.3645

                     19                     20                     21
                      A                      A                      A
 Frequencies --    583.5754               608.8143               621.3022
 Red. masses --      1.6146                 1.7615                 2.7104
 Frc consts  --      0.3240                 0.3847                 0.6164
 IR Inten    --    347.3598               433.9917               127.9833

                     22                     23                     24
                      A                      A                      A
 Frequencies --    640.6059               655.1247               696.6768
 Red. masses --      3.0644                 6.7799                 2.3698
 Frc consts  --      0.7409                 1.7144                 0.6777
 IR Inten    --    169.0555                 2.1927                 7.9513

                     25                     26                     27
                      A                      A                      A
 Frequencies --    720.6075               756.8183               767.7188
 Red. masses --      4.3735                 4.7789                 1.4043
 Frc consts  --      1.3381                 1.6127                 0.4877
 IR Inten    --     35.6494                 1.3931                71.5339

                     28                     29                     30
                      A                      A                      A
 Frequencies --    796.4355               821.1087               838.9747
 Red. masses --      4.3652                 1.2539                 1.5376
 Frc consts  --      1.6314                 0.4981                 0.6377
 IR Inten    --     10.3821                 0.1572                51.8693

                     31                     32                     33
                      A                      A                      A
 Frequencies --    848.4142               850.9087               862.8300
 Red. masses --      1.4251                 1.9207                 5.7194
 Frc consts  --      0.6044                 0.8193                 2.5087
 IR Inten    --      4.2098                92.0450                 5.0812

                     34                     35                     36
                      A                      A                      A
 Frequencies --    944.3132               949.3878               963.2786
 Red. masses --      1.3057                 1.3097                 1.2483
 Frc consts  --      0.6860                 0.6955                 0.6825
 IR Inten    --      1.4310                 0.0256                 0.0293

                     37                     38                     39
                      A                      A                      A
 Frequencies --    982.1447              1006.8137              1025.9780
 Red. masses --      2.8170                 5.8934                 2.5972
 Frc consts  --      1.6010                 3.5197                 1.6108
 IR Inten    --     73.8250                 6.7697                16.3496

                     40                     41                     42
                      A                      A                      A
 Frequencies --   1089.0176              1096.9604              1136.4523
 Red. masses --      1.4276                 1.5752                 1.2654
 Frc consts  --      0.9975                 1.1168                 0.9629
 IR Inten    --      5.8398                 4.6362                 2.5105

                     43                     44                     45
                      A                      A                      A
 Frequencies --   1148.6315              1170.3721              1185.9205
 Red. masses --      1.1808                 1.5461                 1.1281
 Frc consts  --      0.9179                 1.2478                 0.9348
 IR Inten    --     18.9666               163.0269                18.8255

                     46                     47                     48
                      A                      A                      A
 Frequencies --   1199.4407              1248.2967              1313.3800
 Red. masses --      1.4245                 3.5262                 3.2357
 Frc consts  --      1.2074                 3.2374                 3.2885
 IR Inten    --     18.8947               653.2017                39.5982

                     49                     50                     51
                      A                      A                      A
 Frequencies --   1320.9150              1324.1287              1344.5056
 Red. masses --      2.3532                 1.6804                 2.1139
 Frc consts  --      2.4191                 1.7359                 2.2514
 IR Inten    --     42.3660                 2.7715                13.2917

                     52                     53                     54
                      A                      A                      A
 Frequencies --   1362.3696              1372.1457              1475.3268
 Red. masses --      3.3265                 5.0700                 2.9662
 Frc consts  --      3.6377                 5.6242                 3.8038
 IR Inten    --      9.8784                60.2988                 0.3771

                     55                     56                     57
                      A                      A                      A
 Frequencies --   1505.9515              1531.2021              1549.3177
 Red. masses --      3.0155                 2.5997                 2.6785
 Frc consts  --      4.0294                 3.5912                 3.7882
 IR Inten    --     63.6920               308.6576               278.2275

                     58                     59                     60
                      A                      A                      A
 Frequencies --   1630.7430              1633.3482              1652.3840
 Red. masses --      6.0494                 6.5258                 1.9796
 Frc consts  --      9.4783                10.2575                 3.1846
 IR Inten    --    116.5191                 1.6961                61.4668

                     61                     62                     63
                      A                      A                      A
 Frequencies --   1656.8776              1666.0158              1671.4161
 Red. masses --      1.3734                 1.8693                 3.1821
 Frc consts  --      2.2214                 3.0569                 5.2376
 IR Inten    --     32.3727               112.3285               391.5494

                     64                     65                     66
                      A                      A                      A
 Frequencies --   3179.4326              3183.1764              3183.2803
 Red. masses --      1.0867                 1.0889                 1.0888
 Frc consts  --      6.4722                 6.5004                 6.5005
 IR Inten    --     14.0278                25.0383                24.9043

                     67                     68                     69
                      A                      A                      A
 Frequencies --   3194.0862              3196.2491              3206.0056
 Red. masses --      1.0922                 1.0932                 1.0941
 Frc consts  --      6.5650                 6.5801                 6.6257
 IR Inten    --     34.0967                13.6833                21.0090

                     70                     71                     72
                      A                      A                      A
 Frequencies --   3207.6039              3232.8083              3560.1825
 Red. masses --      1.0944                 1.0922                 1.0486
 Frc consts  --      6.6343                 6.7251                 7.8310
 IR Inten    --      2.5018                 3.4638                34.0177

                     73                     74                     75
                      A                      A                      A
 Frequencies --   3562.0929              3661.4680              3664.4620
 Red. masses --      1.0485                 1.0982                 1.0984
 Frc consts  --      7.8383                 8.6746                 8.6899
 IR Inten    --     32.7989                24.3013                23.6775

 - Thermochemistry -
 -------------------
 Temperature   298.150 Kelvin.  Pressure   1.00000 Atm.
 Atom     1 has atomic number  7 and mass  14.00307

 Molecular mass:   200.09496 amu.
 Principal axes and moments of inertia in atomic units:
                           1         2         3
     Eigenvalues --   878.933357005.704687240.81024
           X            0.99998  -0.00514  -0.00223
           Y            0.00514   0.99998   0.00306
           Z            0.00221  -0.00307   0.99999
 This molecule is an asymmetric top.
 Rotational symmetry number  1.
 Warning -- assumption of classical behavior for rotation
           may cause significant error
 Rotational temperatures (Kelvin)      0.09854     0.01236     0.01196
 Rotational constants (GHZ):           2.05333     0.25761     0.24925
 Zero-point vibrational energy     573239.0 (Joules/Mol)
                                  137.00742 (Kcal/Mol)
 Warning -- explicit consideration of  20 degrees of freedom as
           vibrations may cause significant error
 Vibrational temperatures:     12.10    47.88    82.37   242.61   285.30
          (Kelvin)            328.01   342.51   443.43   467.82   489.24
                              507.39   599.49   615.89   628.25   662.03
                              732.72   760.40   781.35   839.63   875.95
                              893.92   921.69   942.58  1002.36  1036.79
                             1088.89  1104.58  1145.89  1181.39  1207.10
                             1220.68  1224.27  1241.42  1358.66  1365.96
                             1385.94  1413.09  1448.58  1476.15  1566.85
                             1578.28  1635.10  1652.62  1683.90  1706.28
                             1725.73  1796.02  1889.66  1900.50  1905.13
                             1934.44  1960.15  1974.21  2122.67  2166.73
                             2203.06  2229.12  2346.28  2350.02  2377.41
                             2383.88  2397.03  2404.79  4574.49  4579.88
                             4580.03  4595.58  4598.69  4612.73  4615.03
                             4651.29  5122.31  5125.06  5268.04  5272.34

 Zero-point correction=                           0.218335 (Hartree/Particle)
 Thermal correction to Energy=                    0.231282
 Thermal correction to Enthalpy=                  0.232226
 Thermal correction to Gibbs Free Energy=         0.176902
 Sum of electronic and zero-point Energies=           -649.038922
 Sum of electronic and thermal Energies=              -649.025976
 Sum of electronic and thermal Enthalpies=            -649.025032
 Sum of electronic and thermal Free Energies=         -649.080355

                     E (Thermal)             CV                S
                      KCal/Mol        Cal/Mol-Kelvin    Cal/Mol-Kelvin
 Total                  145.131             51.975            116.438
 Electronic               0.000              0.000              0.000
 Translational            0.889              2.981             41.786
 Rotational               0.889              2.981             32.167
 Vibrational            143.354             46.013             42.486
 Vibration     1          0.593              1.987              8.355
 Vibration     2          0.594              1.983              5.624
 Vibration     3          0.596              1.975              4.550
 Vibration     4          0.625              1.881              2.451
 Vibration     5          0.637              1.842              2.149
 Vibration     6          0.651              1.798              1.895
 Vibration     7          0.656              1.782              1.817
 Vibration     8          0.698              1.658              1.372
 Vibration     9          0.709              1.625              1.284
 Vibration    10          0.720              1.595              1.212
 Vibration    11          0.729              1.570              1.154
 Vibration    12          0.780              1.434              0.903
 Vibration    13          0.790              1.409              0.865
 Vibration    14          0.797              1.390              0.837
 Vibration    15          0.818              1.338              0.766
 Vibration    16          0.864              1.229              0.635
 Vibration    17          0.883              1.187              0.591
 Vibration    18          0.898              1.155              0.559
 Vibration    19          0.940              1.067              0.479
 Vibration    20          0.968              1.013              0.435

 Optimization completed on the basis of negligible forces.
    -- Stationary point found.
 Normal termination of Gaussian 16 at Sun Jul 21 13:13:03 2024.
 Gaussian 16:  ES64L-G16RevA.03 25-Dec-2016

 ----------------------------------------------------------------------
 # TD(NStates=10, Root=1) B3LYP/6-31G** SCRF=(Solvent=water) volume pop
 =NPA density=current Geom=AllCheck Guess=Read
 ----------------------------------------------------------------------

 Structure from the checkpoint file:  "ZBMISJGHVWNWTE-UHFFFAOYSA-N_conf_0_2.chk"
 ----------------------------------
 ZBMISJGHVWNWTE-UHFFFAOYSA-N_conf_0
 ----------------------------------
 Charge =  0 Multiplicity = 1

                         Standard orientation:
 ---------------------------------------------------------------------
 Center     Atomic      Atomic             Coordinates (Angstroms)
 Number     Number       Type             X           Y           Z
 ---------------------------------------------------------------------
      1          7           0       -5.122714    0.514464   -0.026957
      2          6           0       -3.772675    0.158560   -0.017532
      3          6           0       -3.118440   -0.155804    1.188371
      4          6           0       -1.789527   -0.574431    1.190714
      5          6           0       -1.091862   -0.687509   -0.011271
      6          8           0        0.209423   -1.188345   -0.011124
      7          6           0        1.276619   -0.311923    0.015020
      8          6           0        1.140260    1.077521    0.090307
      9          6           0        2.304384    1.852102    0.110544
     10          6           0        3.569311    1.275684    0.059879
     11          6           0        3.697986   -0.126184   -0.014013
     12          7           0        4.958110   -0.724430   -0.000750
     13          6           0        2.536677   -0.912959   -0.037434
     14          6           0       -1.723597   -0.382960   -1.217030
     15          6           0       -3.051598    0.037478   -1.220515
     16          1           0       -5.456199    0.931410    0.832959
     17          1           0       -5.409644    1.061297   -0.828886
     18          1           0       -3.658293   -0.073608    2.127741
     19          1           0       -1.290698   -0.818147    2.123467
     20          1           0        0.161773    1.538836    0.129795
     21          1           0        2.216565    2.933752    0.165209
     22          1           0        4.459848    1.897354    0.077856
     23          1           0        4.995342   -1.649081   -0.410393
     24          1           0        5.706539   -0.139765   -0.350240
     25          1           0        2.600396   -1.995450   -0.095385
     26          1           0       -1.174495   -0.478468   -2.148513
     27          1           0       -3.539528    0.270932   -2.162911
 ---------------------------------------------------------------------

 SCF Done:  E(RB3LYP) =  -649.257257413     A.U. after    1 cycles

 Excitation energies and oscillator strengths:

 Excited State   1:      Singlet-A      4.5933 eV  269.92 nm  f=0.0847  <S**2>=0.000
      50 -> 56        -0.16409
      52 -> 54         0.46090
      53 -> 54         0.50089
 This state for optimization and/or second-order correction.
 Total Energy, E(TD-HF/TD-DFT) =  -649.088456786
 Copying the excited state density for this state as the 1-particle RhoCI density.

 Excited State   2:      Singlet-A      4.6701 eV  265.48 nm  f=0.1306  <S**2>=0.000
      51 -> 57         0.13373
      52 -> 54         0.49061
      53 -> 54        -0.44774
      53 -> 55        -0.15372

 Excited State   3:      Singlet-A      4.9962 eV  248.16 nm  f=0.0257  <S**2>=0.000
      51 -> 57        -0.20808
      52 -> 54         0.13093
      52 -> 55        -0.28769
      53 -> 54        -0.16780
      53 -> 55         0.55558

 Excited State   4:      Singlet-A      5.1836 eV  239.19 nm  f=0.0068  <S**2>=0.000
      52 -> 55         0.60692
      53 -> 55         0.32888

 Excited State   5:      Singlet-A      5.2750 eV  235.04 nm  f=0.0091  <S**2>=0.000
      51 -> 56         0.11003
      52 -> 56        -0.31051
      53 -> 56         0.61504

 Excited State   6:      Singlet-A      5.3029 eV  233.80 nm  f=0.0053  <S**2>=0.000
      51 -> 54         0.68898

 Excited State   7:      Singlet-A      5.4547 eV  227.30 nm  f=0.5716  <S**2>=0.000
      50 -> 54         0.12483
      51 -> 57         0.12176
      52 -> 56         0.58479
      52 -> 57         0.11848
      53 -> 56         0.27785
      53 -> 57         0.15570

 Excited State   8:      Singlet-A      5.5424 eV  223.70 nm  f=0.0831  <S**2>=0.000
      52 -> 56        -0.14593
      52 -> 57         0.54490
      53 -> 57         0.40052

 Excited State   9:      Singlet-A      5.6521 eV  219.36 nm  f=0.2386  <S**2>=0.000
      51 -> 55         0.32328
      52 -> 57        -0.36624
      53 -> 55        -0.11565
      53 -> 57         0.47398

 Excited State  10:      Singlet-A      5.8086 eV  213.45 nm  f=0.0008  <S**2>=0.000
      51 -> 56         0.68848
      53 -> 56        -0.10979

 The electronic state is 1-A.
 Alpha  occ. eigenvalues --  -19.18257 -14.33788 -14.33687 -10.24928 -10.23817
 Alpha  occ. eigenvalues --  -10.23105 -10.22991 -10.19292 -10.19275 -10.19000
 Alpha  occ. eigenvalues --  -10.18845 -10.18833 -10.17800 -10.17713 -10.17667
 Alpha  occ. eigenvalues --   -1.06870  -0.91633  -0.91458  -0.84414  -0.82720
 Alpha  occ. eigenvalues --   -0.75185  -0.74939  -0.72481  -0.71057  -0.62647
 Alpha  occ. eigenvalues --   -0.62059  -0.60828  -0.57799  -0.54181  -0.51419
 Alpha  occ. eigenvalues --   -0.51081  -0.50778  -0.49005  -0.46465  -0.44889
 Alpha  occ. eigenvalues --   -0.44515  -0.44080  -0.42203  -0.41974  -0.40963
 Alpha  occ. eigenvalues --   -0.39525  -0.38018  -0.37631  -0.36562  -0.35954
 Alpha  occ. eigenvalues --   -0.34526  -0.33705  -0.30213  -0.29486  -0.25591
 Alpha  occ. eigenvalues --   -0.22688  -0.20389  -0.20265
 Alpha virt. eigenvalues --   -0.00884   0.00875   0.01314   0.02157   0.08915
 Alpha virt. eigenvalues --    0.09437   0.10512   0.11131   0.13032   0.13359
 Alpha virt. eigenvalues --    0.15910   0.16577   0.17130   0.17179   0.17474

 Mulliken charges:
               1
     1  N   -0.570019
     2  C    0.263886
     3  C   -0.162297
     4  C   -0.163293
     5  C    0.324843
     6  O   -0.583650
     7  C    0.317183
     8  C   -0.144160
     9  C   -0.133474
    10  C   -0.135839
    11  C    0.259062
    12  N   -0.673637
    13  C   -0.181376
    14  C   -0.157819
    15  C   -0.168734
    16  H    0.315433
    17  H    0.315185
    18  H    0.088609
    19  H    0.085995
    20  H    0.099710
    21  H    0.094651
    22  H    0.087494
    23  H    0.278522
    24  H    0.279309
    25  H    0.090512
    26  H    0.087102
    27  H    0.086800
 Sum of Mulliken charges =  -0.00000

 Dipole moment (field-independent basis, Debye):
    X=             -3.7840    Y=              2.6848    Z=             -1.2373  Tot=              4.8019
 Quadrupole moment (field-independent basis, Debye-Ang):
   XX=            -35.6783   YY=            -84.0839   ZZ=            -86.1772
   XY=            -16.2657   XZ=             -8.1830   YZ=              1.1306

 Summary of Natural Population Analysis:

                                       Natural Population
                Natural  -----------------------------------------------
    Atom  No    Charge         Core      Valence    Rydberg      Total
 -----------------------------------------------------------------------
      N    1   -0.67362      1.99946     5.66442    0.00974     7.67362
      C    2    0.18093      1.99897     3.80209    0.01801     5.81907
      C    3   -0.32892      1.99906     4.31088    0.01898     6.32892
      C    4   -0.36684      1.99901     4.34812    0.01972     6.36684
      C    5    0.36453      1.99870     3.61332    0.02346     5.63547
      O    6   -0.51288      1.99969     6.50178    0.01140     8.51288
      C    7    0.32247      1.99874     3.65671    0.02207     5.67753
      C    8   -0.34669      1.99901     4.33533    0.01235     6.34669
      C    9   -0.23985      1.99913     4.22566    0.01506     6.23985
      C   10   -0.31729      1.99903     4.30543    0.01283     6.31729
      C   11    0.17848      1.99900     3.80487    0.01765     5.82152
      N   12   -0.85179      1.99951     5.84057    0.01171     7.85179
      C   13   -0.36348      1.99896     4.35083    0.01369     6.36348
      C   14   -0.36015      1.99901     4.34170    0.01945     6.36015
      C   15   -0.34243      1.99906     4.32422    0.01914     6.34243
      H   16    0.43296      0.00000     0.56422    0.00282     0.56704
      H   17    0.43274      0.00000     0.56438    0.00289     0.56726
      H   18    0.23937      0.00000     0.75884    0.00179     0.76063
      H   19    0.24690      0.00000     0.75144    0.00166     0.75310
      H   20    0.25385      0.00000     0.74468    0.00147     0.74615
      H   21    0.24526      0.00000     0.75335    0.00139     0.75474
      H   22    0.24173      0.00000     0.75680    0.00148     0.75827
      H   23    0.41480      0.00000     0.58273    0.00247     0.58520
      H   24    0.41557      0.00000     0.58210    0.00233     0.58443
      H   25    0.24816      0.00000     0.74993    0.00190     0.75184
      H   26    0.24738      0.00000     0.75101    0.00161     0.75262
      H   27    0.23883      0.00000     0.75943    0.00174     0.76117
 =======================================================================
   * Total *    0.00000     29.98636    75.74484    0.26880   106.00000

 Normal termination of Gaussian 16 at Sun Jul 21 13:27:11 2024.
