 Gaussian 16, Revision A.03,

 -------------------------------------------------------
 # opt=CalcFc B3LYP/6-31G** SCRF=(Solvent=water) scf=xqc
 -------------------------------------------------------

 ----------------------------------
 YFOOEYJGMMJJLS-UHFFFAOYSA-N_conf_0
 ----------------------------------
 Symbolic Z-matrix:
 Charge =  0 Multiplicity = 1

 SCF Done:  E(RB3LYP) =  -496.616323449     A.U. after   12 cycles
 SCF Done:  E(RB3LYP) =  -496.623227169     A.U. after   11 cycles
 SCF Done:  E(RB3LYP) =  -496.624446574     A.U. after   12 cycles
 SCF Done:  E(RB3LYP) =  -496.623442376     A.U. after   11 cycles
 SCF Done:  E(RB3LYP) =  -496.624646802     A.U. after   11 cycles
 SCF Done:  E(RB3LYP) =  -496.624702792     A.U. after   10 cycles
 SCF Done:  E(RB3LYP) =  -496.624727699     A.U. after    8 cycles
 SCF Done:  E(RB3LYP) =  -496.624748081     A.U. after    9 cycles
 SCF Done:  E(RB3LYP) =  -496.624755832     A.U. after    9 cycles
 SCF Done:  E(RB3LYP) =  -496.624764029     A.U. after    9 cycles
 SCF Done:  E(RB3LYP) =  -496.625384426     A.U. after   10 cycles
 SCF Done:  E(RB3LYP) =  -496.627255120     A.U. after   11 cycles
 SCF Done:  E(RB3LYP) =  -496.627782995     A.U. after   10 cycles
 SCF Done:  E(RB3LYP) =  -496.627966654     A.U. after   10 cycles
 SCF Done:  E(RB3LYP) =  -496.628051870     A.U. after   10 cycles
 SCF Done:  E(RB3LYP) =  -496.628074161     A.U. after    9 cycles
 SCF Done:  E(RB3LYP) =  -496.628075348     A.U. after    8 cycles
 Optimization completed.
    -- Stationary point found.
 Normal termination of Gaussian 16 at Tue Jul  9 19:45:38 2024.

 ----------------------------------------------------------------------
 # freq B3LYP/6-31G** SCRF=(Solvent=water) volume NMR pop=NPA density=c
 urrent Geom=AllCheck Guess=Read
 ----------------------------------------------------------------------

 Structure from the checkpoint file:  "YFOOEYJGMMJJLS-UHFFFAOYSA-N_conf_0_1.chk"
 ----------------------------------
 YFOOEYJGMMJJLS-UHFFFAOYSA-N_conf_0
 ----------------------------------
 Charge =  0 Multiplicity = 1

 SCF Done:  E(RB3LYP) =  -496.628075348     A.U. after    1 cycles

      1  N    Isotropic =   191.2805   Anisotropy =    43.4038

      2  C    Isotropic =    49.5699   Anisotropy =   146.3546

      3  C    Isotropic =    86.3048   Anisotropy =   115.4295

      4  C    Isotropic =    69.9719   Anisotropy =   162.3266

      5  C    Isotropic =    78.2745   Anisotropy =   129.1178

      6  C    Isotropic =    59.5871   Anisotropy =   193.3433

      7  C    Isotropic =    78.2717   Anisotropy =   129.1207

      8  C    Isotropic =    69.9742   Anisotropy =   162.3234

      9  C    Isotropic =    86.3108   Anisotropy =   115.4327

     10  C    Isotropic =    49.5686   Anisotropy =   146.3409

     11  N    Isotropic =   191.2747   Anisotropy =    43.3980

     12  C    Isotropic =    79.3907   Anisotropy =   155.6384

     13  H    Isotropic =    28.3277   Anisotropy =    12.1207

     14  H    Isotropic =    27.0001   Anisotropy =    11.4541

     15  H    Isotropic =    25.2130   Anisotropy =     6.1599

     16  H    Isotropic =    24.4883   Anisotropy =     4.3322

     17  H    Isotropic =    24.6956   Anisotropy =     5.8595

     18  H    Isotropic =    24.6956   Anisotropy =     5.8598

     19  H    Isotropic =    24.4883   Anisotropy =     4.3320

     20  H    Isotropic =    25.2132   Anisotropy =     6.1591

     21  H    Isotropic =    28.3276   Anisotropy =    12.1202

     22  H    Isotropic =    26.9989   Anisotropy =    11.4524

  Exact polarizability: 236.129  -0.001 209.554   2.871  -0.001  51.140
 Approx polarizability: 285.522  -0.003 265.439   5.022  -0.002  65.653

                      1                      2                      3
                      A                      A                      A
 Frequencies --    105.3835               147.9841               214.3689
 Red. masses --      4.1376                 2.8062                 1.3524
 Frc consts  --      0.0271                 0.0362                 0.0366
 IR Inten    --      0.3329                24.6843               102.7043

                      4                      5                      6
                      A                      A                      A
 Frequencies --    247.5230               275.6457               318.2544
 Red. masses --      3.5412                 2.6142                 4.6705
 Frc consts  --      0.1278                 0.1170                 0.2787
 IR Inten    --      0.0156                38.1911                 0.4765

                      7                      8                      9
                      A                      A                      A
 Frequencies --    368.1928               477.0033               478.8307
 Red. masses --      4.1639                 4.5965                 5.3554
 Frc consts  --      0.3326                 0.6162                 0.7234
 IR Inten    --      2.7402                 1.2439                 7.5261

                     10                     11                     12
                      A                      A                      A
 Frequencies --    481.3706               494.0085               535.1709
 Red. masses --      3.8400                 2.6992                 3.3766
 Frc consts  --      0.5243                 0.3881                 0.5698
 IR Inten    --      0.3231                20.9230                13.6560

                     13                     14                     15
                      A                      A                      A
 Frequencies --    561.4113               570.6406               621.6728
 Red. masses --      7.1486                 1.3981                 2.4174
 Frc consts  --      1.3275                 0.2682                 0.5505
 IR Inten    --      0.7804                30.7594                34.2727

                     16                     17                     18
                      A                      A                      A
 Frequencies --    648.6582               650.2167               698.3075
 Red. masses --      5.2036                 2.9297                 1.8080
 Frc consts  --      1.2900                 0.7298                 0.5195
 IR Inten    --     14.1051                19.4258               141.9557

                     19                     20                     21
                      A                      A                      A
 Frequencies --    762.0741               771.5609               778.8826
 Red. masses --      1.2249                 1.7634                 2.5635
 Frc consts  --      0.4191                 0.6185                 0.9163
 IR Inten    --     70.3358                42.5388               266.6135

                     22                     23                     24
                      A                      A                      A
 Frequencies --    819.4535               820.4028               840.4788
 Red. masses --      1.6442                 3.1612                 3.6153
 Frc consts  --      0.6505                 1.2536                 1.5047
 IR Inten    --    381.3781                74.1179                67.5079

                     25                     26                     27
                      A                      A                      A
 Frequencies --    857.5859               876.0692               965.5745
 Red. masses --      1.4281                 1.4984                 1.2565
 Frc consts  --      0.6188                 0.6776                 0.6902
 IR Inten    --     36.0578                 2.4508                 0.1001

                     28                     29                     30
                      A                      A                      A
 Frequencies --    974.0752              1035.9138              1046.5405
 Red. masses --      1.2701                 2.4387                 3.5485
 Frc consts  --      0.7100                 1.5419                 2.2899
 IR Inten    --      0.7659                13.6675                29.7654

                     31                     32                     33
                      A                      A                      A
 Frequencies --   1103.7897              1142.9940              1153.8816
 Red. masses --      2.2660                 1.4686                 1.6856
 Frc consts  --      1.6266                 1.1304                 1.3223
 IR Inten    --     11.0473                18.9152                 8.6108

                     34                     35                     36
                      A                      A                      A
 Frequencies --   1173.1095              1196.2540              1198.6607
 Red. masses --      1.2967                 1.3386                 1.2349
 Frc consts  --      1.0514                 1.1286                 1.0454
 IR Inten    --     23.1590                 8.0792                 1.2410

                     37                     38                     39
                      A                      A                      A
 Frequencies --   1260.5199              1297.0100              1335.5233
 Red. masses --      1.7907                 3.0194                 2.1527
 Frc consts  --      1.6764                 2.9926                 2.2623
 IR Inten    --      2.4112                 2.4038               135.4268

                     40                     41                     42
                      A                      A                      A
 Frequencies --   1389.6169              1399.5891              1444.5787
 Red. masses --      7.0687                 3.1368                 2.5355
 Frc consts  --      8.0423                 3.6202                 3.1174
 IR Inten    --      9.2720                39.7285               118.5217

                     43                     44                     45
                      A                      A                      A
 Frequencies --   1485.4802              1497.8776              1566.9875
 Red. masses --      2.1139                 2.5171                 3.8692
 Frc consts  --      2.7483                 3.3274                 5.5977
 IR Inten    --      4.3844                11.8502                 6.3539

                     46                     47                     48
                      A                      A                      A
 Frequencies --   1630.2029              1640.0394              1645.9674
 Red. masses --      6.0792                 1.2684                 5.0536
 Frc consts  --      9.5187                 2.0101                 8.0667
 IR Inten    --    343.2561               130.8609                 2.8319

                     49                     50                     51
                      A                      A                      A
 Frequencies --   1666.0885              1668.2194              3173.2591
 Red. masses --      4.0834                 1.1216                 1.0864
 Frc consts  --      6.6783                 1.8391                 6.4456
 IR Inten    --     37.2350               179.3668                 1.9994

                     52                     53                     54
                      A                      A                      A
 Frequencies --   3173.3746              3182.5125              3184.3773
 Red. masses --      1.0864                 1.0897                 1.0894
 Frc consts  --      6.4460                 6.5027                 6.5083
 IR Inten    --     33.0516                22.5683                28.8828

                     55                     56                     57
                      A                      A                      A
 Frequencies --   3198.3678              3200.6867              3534.1158
 Red. masses --      1.0977                 1.0970                 1.0498
 Frc consts  --      6.6161                 6.6214                 7.7250
 IR Inten    --     65.2373                39.2894                52.0735

                     58                     59                     60
                      A                      A                      A
 Frequencies --   3538.4776              3635.2914              3638.3562
 Red. masses --      1.0488                 1.0977                 1.0973
 Frc consts  --      7.7371                 8.5470                 8.5585
 IR Inten    --     24.0131                74.3852                 3.7824

 - Thermochemistry -
 -------------------
 Temperature   298.150 Kelvin.  Pressure   1.00000 Atm.
 Atom     1 has atomic number  7 and mass  14.00307

 Molecular mass:   158.08440 amu.
 Principal axes and moments of inertia in atomic units:
                           1         2         3
     Eigenvalues --  1319.666131695.692183002.99683
           X            1.00000  -0.00000  -0.00294
           Y            0.00000   1.00000  -0.00000
           Z            0.00294   0.00000   1.00000
 This molecule is an asymmetric top.
 Rotational symmetry number  1.
 Warning -- assumption of classical behavior for rotation
           may cause significant error
 Rotational temperatures (Kelvin)      0.06563     0.05108     0.02884
 Rotational constants (GHZ):           1.36757     1.06431     0.60098
 Zero-point vibrational energy     477300.8 (Joules/Mol)
                                  114.07763 (Kcal/Mol)
 Warning -- explicit consideration of  14 degrees of freedom as
           vibrations may cause significant error
 Vibrational temperatures:    151.62   212.92   308.43   356.13   396.59
          (Kelvin)            457.90   529.75   686.30   688.93   692.58
                              710.77   769.99   807.75   821.02   894.45
                              933.27   935.52  1004.71  1096.45  1110.10
                             1120.64  1179.01  1180.38  1209.26  1233.87
                             1260.47  1389.25  1401.48  1490.45  1505.74
                             1588.11  1644.51  1660.18  1687.84  1721.14
                             1724.61  1813.61  1866.11  1921.52  1999.35
                             2013.70  2078.43  2137.27  2155.11  2254.55
                             2345.50  2359.65  2368.18  2397.13  2400.20
                             4565.61  4565.78  4578.93  4581.61  4601.74
                             4605.07  5084.80  5091.08  5230.37  5234.78

 Zero-point correction=                           0.181794 (Hartree/Particle)
 Thermal correction to Energy=                    0.191200
 Thermal correction to Enthalpy=                  0.192144
 Thermal correction to Gibbs Free Energy=         0.147740
 Sum of electronic and zero-point Energies=           -496.446281
 Sum of electronic and thermal Energies=              -496.436875
 Sum of electronic and thermal Enthalpies=            -496.435931
 Sum of electronic and thermal Free Energies=         -496.480335

                     E (Thermal)             CV                S
                      KCal/Mol        Cal/Mol-Kelvin    Cal/Mol-Kelvin
 Total                  119.980             39.597             93.457
 Electronic               0.000              0.000              0.000
 Translational            0.889              2.981             41.083
 Rotational               0.889              2.981             30.286
 Vibrational            118.202             33.636             22.087
 Vibration     1          0.605              1.945              3.352
 Vibration     2          0.617              1.905              2.698
 Vibration     3          0.644              1.819              2.006
 Vibration     4          0.661              1.767              1.748
 Vibration     5          0.677              1.718              1.561
 Vibration     6          0.705              1.639              1.319
 Vibration     7          0.741              1.538              1.087
 Vibration     8          0.834              1.301              0.718
 Vibration     9          0.835              1.297              0.713
 Vibration    10          0.838              1.291              0.706
 Vibration    11          0.850              1.263              0.673
 Vibration    12          0.890              1.172              0.576
 Vibration    13          0.917              1.115              0.521
 Vibration    14          0.927              1.095              0.503

 Optimization completed.
    -- Stationary point found.
 Normal termination of Gaussian 16 at Tue Jul  9 20:04:32 2024.
 Gaussian 16:  EM64L-G16RevA.03 25-Dec-2016

 ----------------------------------------------------------------------
 # TD(NStates=10, Root=1) B3LYP/6-31G** SCRF=(Solvent=water) volume pop
 =NPA density=current Geom=AllCheck Guess=Read
 ----------------------------------------------------------------------

 Structure from the checkpoint file:  "YFOOEYJGMMJJLS-UHFFFAOYSA-N_conf_0_2.chk"
 ----------------------------------
 YFOOEYJGMMJJLS-UHFFFAOYSA-N_conf_0
 ----------------------------------
 Charge =  0 Multiplicity = 1

                         Standard orientation:
 ---------------------------------------------------------------------
 Center     Atomic      Atomic             Coordinates (Angstroms)
 Number     Number       Type             X           Y           Z
 ---------------------------------------------------------------------
      1          7           0       -1.362993    2.261610    0.090982
      2          6           0       -1.275700    0.860884    0.037312
      3          6           0       -2.448600    0.116655   -0.021758
      4          6           0       -2.425492   -1.289105   -0.079964
      5          6           0       -1.229086   -1.966487   -0.050259
      6          6           0        0.000088   -1.254275    0.000032
      7          6           0        1.229374   -1.966315    0.050316
      8          6           0        2.425696   -1.288820    0.079934
      9          6           0        2.448620    0.116959    0.021648
     10          6           0        1.275630    0.860994   -0.037376
     11          7           0        1.362580    2.261822   -0.090911
     12          6           0        0.000004    0.187452    0.000036
     13          1           0       -2.300321    2.584002    0.301545
     14          1           0       -0.690306    2.695841    0.712268
     15          1           0       -3.401334    0.639307    0.001121
     16          1           0       -3.364637   -1.833637   -0.122492
     17          1           0       -1.201584   -3.052109   -0.064126
     18          1           0        1.201999   -3.051941    0.064232
     19          1           0        3.364902   -1.833245    0.122439
     20          1           0        3.401274    0.639750   -0.001328
     21          1           0        2.299876    2.584414   -0.301374
     22          1           0        0.689812    2.695932   -0.712301
 ---------------------------------------------------------------------

 SCF Done:  E(RB3LYP) =  -496.628075348     A.U. after    1 cycles

 Excitation energies and oscillator strengths:

 Excited State   1:      Singlet-A      3.8503 eV  322.01 nm  f=0.2624  <S**2>=0.000
      42 -> 43         0.70001
 This state for optimization and/or second-order correction.
 Total Energy, E(TD-HF/TD-DFT) =  -496.486578712
 Copying the excited state density for this state as the 1-particle RhoCI density.

 Excited State   2:      Singlet-A      3.9906 eV  310.69 nm  f=0.2184  <S**2>=0.000
      40 -> 43        -0.20834
      42 -> 44         0.67460

 Excited State   3:      Singlet-A      4.9239 eV  251.80 nm  f=0.0369  <S**2>=0.000
      41 -> 43         0.66380
      42 -> 45        -0.23642

 Excited State   4:      Singlet-A      5.2600 eV  235.71 nm  f=0.0004  <S**2>=0.000
      40 -> 45        -0.12215
      41 -> 44         0.69148

 Excited State   5:      Singlet-A      5.3803 eV  230.44 nm  f=0.6966  <S**2>=0.000
      40 -> 43         0.60673
      42 -> 44         0.17653
      42 -> 45        -0.29329

 Excited State   6:      Singlet-A      5.6102 eV  221.00 nm  f=0.2978  <S**2>=0.000
      40 -> 43         0.27777
      41 -> 43         0.22468
      42 -> 44         0.10772
      42 -> 45         0.59118

 Excited State   7:      Singlet-A      6.0164 eV  206.08 nm  f=0.3081  <S**2>=0.000
      40 -> 44         0.68231
      41 -> 45         0.12515

 Excited State   8:      Singlet-A      6.4562 eV  192.04 nm  f=0.0007  <S**2>=0.000
      39 -> 43         0.18888
      42 -> 46         0.67379

 Excited State   9:      Singlet-A      6.6288 eV  187.04 nm  f=0.1680  <S**2>=0.000
      39 -> 43         0.57862
      41 -> 45        -0.29623
      42 -> 46        -0.15276
      42 -> 47         0.13369
      42 -> 48        -0.15706

 Excited State  10:      Singlet-A      6.7765 eV  182.96 nm  f=0.6754  <S**2>=0.000
      39 -> 43         0.21475
      40 -> 44        -0.12926
      41 -> 45         0.61044
      42 -> 47         0.18774

 The electronic state is 1-A.
 Alpha  occ. eigenvalues --  -14.33776 -14.33776 -10.23253 -10.23253 -10.19894
 Alpha  occ. eigenvalues --  -10.19629 -10.18668 -10.18668 -10.17813 -10.17813
 Alpha  occ. eigenvalues --  -10.17669 -10.17668  -0.92970  -0.90237  -0.84945
 Alpha  occ. eigenvalues --   -0.80315  -0.74481  -0.73682  -0.69711  -0.61983
 Alpha  occ. eigenvalues --   -0.61788  -0.58202  -0.52550  -0.51863  -0.51698
 Alpha  occ. eigenvalues --   -0.48009  -0.46630  -0.46464  -0.43900  -0.42204
 Alpha  occ. eigenvalues --   -0.40708  -0.39393  -0.39302  -0.36926  -0.35351
 Alpha  occ. eigenvalues --   -0.34208  -0.33508  -0.31872  -0.29025  -0.24217
 Alpha  occ. eigenvalues --   -0.22845  -0.18100
 Alpha virt. eigenvalues --   -0.02214  -0.00784   0.04531   0.08826   0.10507
 Alpha virt. eigenvalues --    0.10963   0.11318   0.12777   0.14211   0.16053
 Alpha virt. eigenvalues --    0.16681   0.18807   0.19548   0.20039   0.21550

 Mulliken charges:
               1
     1  N   -0.672571
     2  C    0.167603
     3  C   -0.122366
     4  C   -0.121037
     5  C   -0.176848
     6  C    0.065193
     7  C   -0.176865
     8  C   -0.121064
     9  C   -0.122356
    10  C    0.167572
    11  N   -0.672602
    12  C    0.103012
    13  H    0.282395
    14  H    0.290688
    15  H    0.095557
    16  H    0.089044
    17  H    0.083509
    18  H    0.083492
    19  H    0.089029
    20  H    0.095554
    21  H    0.282382
    22  H    0.290678
 Sum of Mulliken charges =  -0.00000

 Dipole moment (field-independent basis, Debye):
    X=             -0.0015    Y=              4.0607    Z=              0.0000  Tot=              4.0607
 Quadrupole moment (field-independent basis, Debye-Ang):
   XX=            -58.5854   YY=            -56.8565   ZZ=            -74.2091
   XY=              0.0002   XZ=             -3.0773   YZ=             -0.0001

 Summary of Natural Population Analysis:

                                       Natural Population
                Natural  -----------------------------------------------
    Atom  No    Charge         Core      Valence    Rydberg      Total
 -----------------------------------------------------------------------
      N    1   -0.83113      1.99951     5.81846    0.01315     7.83113
      C    2    0.13582      1.99897     3.84576    0.01945     5.86418
      C    3   -0.25914      1.99906     4.24575    0.01434     6.25914
      C    4   -0.26167      1.99912     4.24697    0.01559     6.26167
      C    5   -0.26528      1.99906     4.24991    0.01632     6.26528
      C    6   -0.04957      1.99905     4.03546    0.01506     6.04957
      C    7   -0.26532      1.99906     4.24995    0.01632     6.26532
      C    8   -0.26173      1.99912     4.24702    0.01559     6.26173
      C    9   -0.25911      1.99906     4.24572    0.01434     6.25911
      C   10    0.13578      1.99897     3.84580    0.01944     5.86422
      N   11   -0.83120      1.99951     5.81854    0.01315     7.83120
      C   12   -0.10661      1.99894     4.09394    0.01373     6.10661
      H   13    0.41716      0.00000     0.58012    0.00272     0.58284
      H   14    0.42316      0.00000     0.57325    0.00359     0.57684
      H   15    0.24044      0.00000     0.75801    0.00155     0.75956
      H   16    0.24230      0.00000     0.75628    0.00142     0.75770
      H   17    0.23654      0.00000     0.76164    0.00182     0.76346
      H   18    0.23653      0.00000     0.76165    0.00182     0.76347
      H   19    0.24229      0.00000     0.75629    0.00142     0.75771
      H   20    0.24044      0.00000     0.75801    0.00155     0.75956
      H   21    0.41715      0.00000     0.58013    0.00272     0.58285
      H   22    0.42315      0.00000     0.57326    0.00359     0.57685
 =======================================================================
   * Total *    0.00000     23.98942    59.80193    0.20865    84.00000

 Normal termination of Gaussian 16 at Tue Jul  9 20:28:00 2024.
