 Gaussian 16, Revision A.03,

 -------------------------------------------------------
 # opt=CalcFc B3LYP/6-31G** SCRF=(Solvent=water) scf=xqc
 -------------------------------------------------------

 ----------------------------------
 DKKYOQYISDAQER-UHFFFAOYSA-N_conf_1
 ----------------------------------
 Symbolic Z-matrix:
 Charge =  0 Multiplicity = 1

 SCF Done:  E(RB3LYP) =  -955.526118654     A.U. after   12 cycles
 SCF Done:  E(RB3LYP) =  -955.530825034     A.U. after   12 cycles
 SCF Done:  E(RB3LYP) =  -955.531119853     A.U. after   12 cycles
 SCF Done:  E(RB3LYP) =  -955.531210662     A.U. after   10 cycles
 SCF Done:  E(RB3LYP) =  -955.531220363     A.U. after    9 cycles
 SCF Done:  E(RB3LYP) =  -955.531220850     A.U. after    8 cycles
 SCF Done:  E(RB3LYP) =  -955.531220914     A.U. after    8 cycles
 SCF Done:  E(RB3LYP) =  -955.531220956     A.U. after    7 cycles
 Optimization completed.
    -- Stationary point found.
 Normal termination of Gaussian 16 at Wed Jul 17 15:37:29 2024.

 ----------------------------------------------------------------------
 # freq B3LYP/6-31G** SCRF=(Solvent=water) volume NMR pop=NPA density=c
 urrent Geom=AllCheck Guess=Read
 ----------------------------------------------------------------------

 Structure from the checkpoint file:  "DKKYOQYISDAQER-UHFFFAOYSA-N_conf_1_1.chk"
 ----------------------------------
 DKKYOQYISDAQER-UHFFFAOYSA-N_conf_1
 ----------------------------------
 Charge =  0 Multiplicity = 1

 SCF Done:  E(RB3LYP) =  -955.531220956     A.U. after    1 cycles

      1  N    Isotropic =   198.3023   Anisotropy =    73.3375

      2  C    Isotropic =    47.7899   Anisotropy =   160.0488

      3  C    Isotropic =    90.4974   Anisotropy =   106.5923

      4  C    Isotropic =    39.4657   Anisotropy =   112.7391

      5  O    Isotropic =   175.3325   Anisotropy =    82.3020

      6  C    Isotropic =    37.3780   Anisotropy =   118.2301

      7  C    Isotropic =    87.1870   Anisotropy =   112.5229

      8  C    Isotropic =    37.3773   Anisotropy =   118.2316

      9  O    Isotropic =   175.3314   Anisotropy =    82.3013

     10  C    Isotropic =    39.4669   Anisotropy =   112.7380

     11  C    Isotropic =    89.0033   Anisotropy =   134.4397

     12  C    Isotropic =    66.3944   Anisotropy =   166.8535

     13  C    Isotropic =    86.9789   Anisotropy =   126.9817

     14  C    Isotropic =    47.7898   Anisotropy =   160.0490

     15  N    Isotropic =   198.3021   Anisotropy =    73.3373

     16  C    Isotropic =    90.4965   Anisotropy =   106.5938

     17  C    Isotropic =    86.4923   Anisotropy =   142.3808

     18  C    Isotropic =    66.4029   Anisotropy =   168.7418

     19  C    Isotropic =    86.4910   Anisotropy =   142.3807

     20  C    Isotropic =    89.0048   Anisotropy =   134.4392

     21  C    Isotropic =    66.3945   Anisotropy =   166.8530

     22  C    Isotropic =    86.9796   Anisotropy =   126.9803

     23  H    Isotropic =    28.4370   Anisotropy =    11.7105

     24  H    Isotropic =    28.4049   Anisotropy =    12.6123

     25  H    Isotropic =    25.3497   Anisotropy =     7.5085

     26  H    Isotropic =    24.9349   Anisotropy =     7.4100

     27  H    Isotropic =    25.4441   Anisotropy =     8.2435

     28  H    Isotropic =    24.5476   Anisotropy =     4.5077

     29  H    Isotropic =    25.3143   Anisotropy =     4.5823

     30  H    Isotropic =    28.4370   Anisotropy =    11.7105

     31  H    Isotropic =    28.4048   Anisotropy =    12.6123

     32  H    Isotropic =    25.3497   Anisotropy =     7.5086

     33  H    Isotropic =    25.1713   Anisotropy =     9.1952

     34  H    Isotropic =    24.4760   Anisotropy =     5.0961

     35  H    Isotropic =    25.1713   Anisotropy =     9.1947

     36  H    Isotropic =    25.4442   Anisotropy =     8.2441

     37  H    Isotropic =    24.5476   Anisotropy =     4.5079

     38  H    Isotropic =    25.3144   Anisotropy =     4.5822

  Exact polarizability: 427.278  28.658 230.978  -0.005  -0.002 174.123
 Approx polarizability: 455.076  38.653 290.682  -0.006  -0.004 226.755

                      1                      2                      3
                      A                      A                      A
 Frequencies --     10.7878                13.6980                27.4256
 Red. masses --      5.7892                 5.8399                 5.0085
 Frc consts  --      0.0004                 0.0006                 0.0022
 IR Inten    --      2.3016                 1.1009                 0.0896

                      4                      5                      6
                      A                      A                      A
 Frequencies --     30.4492                60.0632               101.4183
 Red. masses --      5.2264                 4.9547                 4.4392
 Frc consts  --      0.0029                 0.0105                 0.0269
 IR Inten    --      2.5651                 0.4479                 2.6288

                      7                      8                      9
                      A                      A                      A
 Frequencies --    161.4212               198.9132               210.6931
 Red. masses --      6.7193                 5.3717                 4.4838
 Frc consts  --      0.1032                 0.1252                 0.1173
 IR Inten    --      0.0181                 4.5730                 6.3608

                     10                     11                     12
                      A                      A                      A
 Frequencies --    222.8004               224.0425               242.4194
 Red. masses --      4.0898                 3.8860                 4.0639
 Frc consts  --      0.1196                 0.1149                 0.1407
 IR Inten    --      4.0643                 4.3191                 0.0247

                     13                     14                     15
                      A                      A                      A
 Frequencies --    248.2040               300.9825               323.9580
 Red. masses --      4.2258                 5.0974                 3.9683
 Frc consts  --      0.1534                 0.2721                 0.2454
 IR Inten    --      3.2377                13.5685                 0.9283

                     16                     17                     18
                      A                      A                      A
 Frequencies --    331.9562               332.5438               399.8242
 Red. masses --      1.0654                 1.1498                 4.9541
 Frc consts  --      0.0692                 0.0749                 0.4666
 IR Inten    --     56.8955                 5.6160                 8.2443

                     19                     20                     21
                      A                      A                      A
 Frequencies --    439.5955               452.4913               460.1167
 Red. masses --      3.6540                 3.4608                 3.0301
 Frc consts  --      0.4160                 0.4175                 0.3780
 IR Inten    --      3.6996                 6.6200                 6.6217

                     22                     23                     24
                      A                      A                      A
 Frequencies --    460.3105               464.8076               530.2585
 Red. masses --      3.0293                 3.3157                 5.9155
 Frc consts  --      0.3782                 0.4221                 0.9800
 IR Inten    --     19.2969                 4.9895                92.9333

                     25                     26                     27
                      A                      A                      A
 Frequencies --    531.2840               542.1430               564.7278
 Red. masses --      6.0448                 3.9922                 1.9874
 Frc consts  --      1.0053                 0.6913                 0.3734
 IR Inten    --     12.3662                 6.7843               467.8769

                     28                     29                     30
                      A                      A                      A
 Frequencies --    570.5928               578.0021               601.9946
 Red. masses --      5.8595                 1.7012                 2.7475
 Frc consts  --      1.1240                 0.3349                 0.5866
 IR Inten    --     99.6186               133.7616               302.6077

                     31                     32                     33
                      A                      A                      A
 Frequencies --    602.9190               622.4416               672.9256
 Red. masses --      6.5843                 4.2161                 4.0404
 Frc consts  --      1.4102                 0.9624                 1.0780
 IR Inten    --      7.2863                26.4713                49.7097

                     34                     35                     36
                      A                      A                      A
 Frequencies --    675.0938               693.6764               699.9414
 Red. masses --      4.6557                 2.5889                 2.5488
 Frc consts  --      1.2501                 0.7340                 0.7357
 IR Inten    --      5.7475                41.8383                11.1130

                     37                     38                     39
                      A                      A                      A
 Frequencies --    707.5684               750.9416               757.4381
 Red. masses --      2.5005                 3.0338                 3.0553
 Frc consts  --      0.7376                 1.0080                 1.0328
 IR Inten    --      1.0104                14.3984                 4.1008

                     40                     41                     42
                      A                      A                      A
 Frequencies --    773.0748               779.8158               788.1213
 Red. masses --      1.3855                 2.0099                 1.6728
 Frc consts  --      0.4878                 0.7201                 0.6122
 IR Inten    --     78.2168                72.1556                 6.8535

                     43                     44                     45
                      A                      A                      A
 Frequencies --    790.1543               852.6373               853.1787
 Red. masses --      4.2181                 1.5497                 1.5723
 Frc consts  --      1.5516                 0.6638                 0.6743
 IR Inten    --     13.1615                29.1150                65.5774

                     46                     47                     48
                      A                      A                      A
 Frequencies --    861.4961               865.9551               870.4961
 Red. masses --      1.4232                 1.4419                 1.5717
 Frc consts  --      0.6223                 0.6370                 0.7017
 IR Inten    --     22.6166                12.3271                 7.3547

                     49                     50                     51
                      A                      A                      A
 Frequencies --    880.5777               931.8647               967.1273
 Red. masses --      1.4601                 3.8361                 1.2562
 Frc consts  --      0.6671                 1.9627                 0.6923
 IR Inten    --      3.8082                 0.1800                 1.3471

                     52                     53                     54
                      A                      A                      A
 Frequencies --    967.3266               973.4346               980.7437
 Red. masses --      1.2559                 1.2626                 2.8460
 Frc consts  --      0.6924                 0.7049                 1.6128
 IR Inten    --      0.0990                 1.4482                 0.3148

                     55                     56                     57
                      A                      A                      A
 Frequencies --   1008.1982              1009.5087              1011.8311
 Red. masses --      4.0713                 5.8992                 2.7091
 Frc consts  --      2.4382                 3.5421                 1.6342
 IR Inten    --     20.0849                 2.4351               257.0157

                     58                     59                     60
                      A                      A                      A
 Frequencies --   1013.3652              1092.8168              1092.8716
 Red. masses --      5.9721                 1.5752                 1.5859
 Frc consts  --      3.6133                 1.1083                 1.1160
 IR Inten    --      1.0630                 7.9143                 0.0576

                     61                     62                     63
                      A                      A                      A
 Frequencies --   1110.8645              1133.9902              1134.8481
 Red. masses --      1.5297                 1.3290                 1.2682
 Frc consts  --      1.1122                 1.0069                 0.9623
 IR Inten    --     12.3398                 7.5166                 1.1813

                     64                     65                     66
                      A                      A                      A
 Frequencies --   1142.7964              1177.0704              1179.8849
 Red. masses --      1.5063                 1.4318                 1.2294
 Frc consts  --      1.1591                 1.1688                 1.0084
 IR Inten    --     61.5646                 0.2758               480.6451

                     67                     68                     69
                      A                      A                      A
 Frequencies --   1190.5192              1197.4119              1211.4690
 Red. masses --      1.1539                 1.5412                 2.3222
 Frc consts  --      0.9636                 1.3019                 2.0081
 IR Inten    --     11.4681                 0.0022              1145.0993

                     70                     71                     72
                      A                      A                      A
 Frequencies --   1296.6236              1299.9454              1316.9141
 Red. masses --      5.8622                 1.6587                 1.9869
 Frc consts  --      5.8068                 1.6515                 2.0302
 IR Inten    --     80.7131               187.2802                 0.4580

                     73                     74                     75
                      A                      A                      A
 Frequencies --   1318.5870              1345.1923              1347.7350
 Red. masses --      2.0650                 2.1707                 2.2528
 Frc consts  --      2.1154                 2.3143                 2.4109
 IR Inten    --     95.1812                31.6238                 0.0315

                     76                     77                     78
                      A                      A                      A
 Frequencies --   1361.7044              1367.6054              1370.3902
 Red. masses --      3.8054                 4.9966                 5.9687
 Frc consts  --      4.1573                 5.5062                 6.6042
 IR Inten    --    103.7578                 2.1907                13.5921

                     79                     80                     81
                      A                      A                      A
 Frequencies --   1483.3171              1504.9965              1510.0905
 Red. masses --      3.2933                 3.0079                 3.1179
 Frc consts  --      4.2692                 4.0141                 4.1891
 IR Inten    --      9.2407               148.6491                 5.0574

                     82                     83                     84
                      A                      A                      A
 Frequencies --   1517.9028              1532.2085              1533.0295
 Red. masses --      2.5087                 2.6225                 2.6543
 Frc consts  --      3.4056                 3.6274                 3.6754
 IR Inten    --    549.4617                 0.3161               164.9436

                     85                     86                     87
                      A                      A                      A
 Frequencies --   1626.6516              1628.5604              1638.3906
 Red. masses --      6.1397                 6.1180                 6.6767
 Frc consts  --      9.5716                 9.5602                10.5596
 IR Inten    --     13.6309               381.4089                85.5180

                     88                     89                     90
                      A                      A                      A
 Frequencies --   1645.8452              1655.2815              1660.1001
 Red. masses --      4.3701                 1.7340                 1.4083
 Frc consts  --      6.9745                 2.7992                 2.2867
 IR Inten    --    565.5286                 7.4328               216.2741

                     91                     92                     93
                      A                      A                      A
 Frequencies --   1667.5097              1672.0385              3182.7680
 Red. masses --      2.1837                 3.9641                 1.0869
 Frc consts  --      3.5775                 6.5296                 6.4869
 IR Inten    --     45.4062               288.7087                24.5107

                     94                     95                     96
                      A                      A                      A
 Frequencies --   3182.7714              3195.3548              3197.5078
 Red. masses --      1.0869                 1.0888                 1.0936
 Frc consts  --      6.4870                 6.5500                 6.5875
 IR Inten    --      0.9591                15.2120                67.2863

                     97                     98                     99
                      A                      A                      A
 Frequencies --   3197.5348              3201.5548              3201.5673
 Red. masses --      1.0935                 1.0916                 1.0916
 Frc consts  --      6.5874                 6.5922                 6.5923
 IR Inten    --      8.2062                10.4774                 0.7674

                    100                    101                    102
                      A                      A                      A
 Frequencies --   3222.7902              3222.8023              3224.1562
 Red. masses --      1.0940                 1.0939                 1.0922
 Frc consts  --      6.6944                 6.6943                 6.6893
 IR Inten    --     11.7768                 0.1701                 1.6360

                    103                    104                    105
                      A                      A                      A
 Frequencies --   3227.0543              3230.3670              3565.7840
 Red. masses --      1.0914                 1.0947                 1.0484
 Frc consts  --      6.6963                 6.7304                 7.8537
 IR Inten    --      8.6475                 1.8678                58.5738

                    106                    107                    108
                      A                      A                      A
 Frequencies --   3565.7868              3669.2828              3669.2844
 Red. masses --      1.0484                 1.0988                 1.0988
 Frc consts  --      7.8537                 8.7161                 8.7161
 IR Inten    --     22.4157                26.9665                26.8452

 - Thermochemistry -
 -------------------
 Temperature   298.150 Kelvin.  Pressure   1.00000 Atm.
 Atom     1 has atomic number  7 and mass  14.00307

 Molecular mass:   292.12118 amu.
 Principal axes and moments of inertia in atomic units:
                           1         2         3
     Eigenvalues --  1515.31657********************
           X            1.00000   0.00075  -0.00000
           Y           -0.00075   1.00000   0.00000
           Z            0.00000  -0.00000   1.00000
 This molecule is an asymmetric top.
 Rotational symmetry number  1.
 Warning -- assumption of classical behavior for rotation
           may cause significant error
 Rotational temperatures (Kelvin)      0.05716     0.00422     0.00415
 Rotational constants (GHZ):           1.19100     0.08791     0.08655
 Zero-point vibrational energy     795046.0 (Joules/Mol)
                                  190.02055 (Kcal/Mol)
 Warning -- explicit consideration of  31 degrees of freedom as
           vibrations may cause significant error
 Vibrational temperatures:     15.52    19.71    39.46    43.81    86.42
          (Kelvin)            145.92   232.25   286.19   303.14   320.56
                              322.35   348.79   357.11   433.05   466.10
                              477.61   478.46   575.26   632.48   651.03
                              662.01   662.28   668.75   762.92   764.40
                              780.02   812.52   820.96   831.62   866.14
                              867.47   895.55   968.19   971.31   998.05
                             1007.06  1018.03  1080.44  1089.78  1112.28
                             1121.98  1133.93  1136.86  1226.75  1227.53
                             1239.50  1245.92  1252.45  1266.95  1340.75
                             1391.48  1391.77  1400.56  1411.07  1450.57
                             1452.46  1455.80  1458.01  1572.32  1572.40
                             1598.29  1631.56  1632.79  1644.23  1693.54
                             1697.59  1712.89  1722.81  1743.03  1865.55
                             1870.33  1894.75  1897.15  1935.43  1939.09
                             1959.19  1967.68  1971.69  2134.16  2165.35
                             2172.68  2183.92  2204.51  2205.69  2340.39
                             2343.14  2357.28  2368.00  2381.58  2388.51
                             2399.17  2405.69  4579.29  4579.30  4597.40
                             4600.50  4600.54  4606.32  4606.34  4636.88
                             4636.89  4638.84  4643.01  4647.78  5130.37
                             5130.37  5279.28  5279.28

 Zero-point correction=                           0.302817 (Hartree/Particle)
 Thermal correction to Energy=                    0.321519
 Thermal correction to Enthalpy=                  0.322464
 Thermal correction to Gibbs Free Energy=         0.252561
 Sum of electronic and zero-point Energies=           -955.228404
 Sum of electronic and thermal Energies=              -955.209701
 Sum of electronic and thermal Enthalpies=            -955.208757
 Sum of electronic and thermal Free Energies=         -955.278660

                     E (Thermal)             CV                S
                      KCal/Mol        Cal/Mol-Kelvin    Cal/Mol-Kelvin
 Total                  201.757             75.007            147.122
 Electronic               0.000              0.000              0.000
 Translational            0.889              2.981             42.913
 Rotational               0.889              2.981             34.827
 Vibrational            199.979             69.045             69.381
 Vibration     1          0.593              1.987              7.860
 Vibration     2          0.593              1.986              7.386
 Vibration     3          0.593              1.984              6.007
 Vibration     4          0.594              1.984              5.800
 Vibration     5          0.597              1.973              4.455
 Vibration     6          0.604              1.948              3.427
 Vibration     7          0.622              1.890              2.533
 Vibration     8          0.637              1.841              2.143
 Vibration     9          0.643              1.825              2.038
 Vibration    10          0.648              1.806              1.936
 Vibration    11          0.649              1.804              1.926
 Vibration    12          0.659              1.775              1.785
 Vibration    13          0.662              1.766              1.743
 Vibration    14          0.693              1.672              1.411
 Vibration    15          0.709              1.628              1.290
 Vibration    16          0.714              1.612              1.251
 Vibration    17          0.714              1.611              1.248
 Vibration    18          0.766              1.470              0.963
 Vibration    19          0.800              1.384              0.828
 Vibration    20          0.811              1.355              0.788
 Vibration    21          0.818              1.339              0.766
 Vibration    22          0.818              1.338              0.765
 Vibration    23          0.822              1.328              0.752
 Vibration    24          0.885              1.183              0.587
 Vibration    25          0.886              1.181              0.584
 Vibration    26          0.897              1.157              0.561
 Vibration    27          0.921              1.108              0.514
 Vibration    28          0.927              1.095              0.503
 Vibration    29          0.935              1.079              0.489
 Vibration    30          0.960              1.028              0.446
 Vibration    31          0.961              1.026              0.445

 Optimization completed.
    -- Stationary point found.
 Normal termination of Gaussian 16 at Wed Jul 17 16:07:59 2024.
 Gaussian 16:  ES64L-G16RevA.03 25-Dec-2016

 ----------------------------------------------------------------------
 # TD(NStates=10, Root=1) B3LYP/6-31G** SCRF=(Solvent=water) volume pop
 =NPA density=current Geom=AllCheck Guess=Read
 ----------------------------------------------------------------------

 Structure from the checkpoint file:  "DKKYOQYISDAQER-UHFFFAOYSA-N_conf_1_2.chk"
 ----------------------------------
 DKKYOQYISDAQER-UHFFFAOYSA-N_conf_1
 ----------------------------------
 Charge =  0 Multiplicity = 1

                         Standard orientation:
 ---------------------------------------------------------------------
 Center     Atomic      Atomic             Coordinates (Angstroms)
 Number     Number       Type             X           Y           Z
 ---------------------------------------------------------------------
      1          7           0        6.967849    1.377903   -0.310921
      2          6           0        5.927263    0.456885   -0.224862
      3          6           0        4.616039    0.829528   -0.572260
      4          6           0        3.572414   -0.079661   -0.425386
      5          8           0        2.326667    0.332694   -0.881942
      6          6           0        1.197456    0.132875   -0.114902
      7          6           0        0.000021    0.000111   -0.819582
      8          6           0       -1.197443   -0.132612   -0.114938
      9          8           0       -2.326616   -0.332466   -0.882019
     10          6           0       -3.572417    0.079723   -0.425451
     11          6           0       -3.785577    1.370959    0.064904
     12          6           0       -5.088591    1.729784    0.415826
     13          6           0       -6.150951    0.839590    0.276592
     14          6           0       -5.927182   -0.457148   -0.224832
     15          7           0       -6.967639   -1.378317   -0.310812
     16          6           0       -4.615913   -0.829625   -0.572243
     17          6           0       -1.210021   -0.141434    1.284071
     18          6           0       -0.000029    0.000191    1.964294
     19          6           0        1.209987    0.141777    1.284107
     20          6           0        3.785406   -1.370899    0.065039
     21          6           0        5.088379   -1.729889    0.415944
     22          6           0        6.150863   -0.839857    0.276629
     23          1           0        6.831071    2.120825   -0.983972
     24          1           0        7.891874    0.973279   -0.388691
     25          1           0        4.403948    1.821073   -0.959879
     26          1           0        0.000040    0.000081   -1.903501
     27          1           0       -2.962287    2.069210    0.159754
     28          1           0       -5.280560    2.729299    0.795290
     29          1           0       -7.157460    1.141148    0.552104
     30          1           0       -6.830778   -2.121253   -0.983830
     31          1           0       -7.891724   -0.973827   -0.388573
     32          1           0       -4.403690   -1.821162   -0.959810
     33          1           0       -2.141469   -0.257201    1.824744
     34          1           0       -0.000049    0.000222    3.050128
     35          1           0        2.141418    0.257577    1.824803
     36          1           0        2.962021   -2.069029    0.159955
     37          1           0        5.280214   -2.729410    0.795461
     38          1           0        7.157336   -1.141543    0.552131
 ---------------------------------------------------------------------

 SCF Done:  E(RB3LYP) =  -955.531220956     A.U. after    1 cycles

 Excitation energies and oscillator strengths:

 Excited State   1:      Singlet-A      4.5646 eV  271.62 nm  f=0.4339  <S**2>=0.000
      75 -> 78        -0.11096
      76 -> 79         0.18200
      76 -> 80         0.12325
      77 -> 78         0.64201
 This state for optimization and/or second-order correction.
 Total Energy, E(TD-HF/TD-DFT) =  -955.363473666
 Copying the excited state density for this state as the 1-particle RhoCI density.

 Excited State   2:      Singlet-A      4.6720 eV  265.38 nm  f=0.0011  <S**2>=0.000
      76 -> 78         0.48638
      76 -> 81        -0.13418
      77 -> 79         0.42087
      77 -> 80         0.17813

 Excited State   3:      Singlet-A      4.8493 eV  255.67 nm  f=0.0429  <S**2>=0.000
      74 -> 83         0.10762
      75 -> 78         0.14527
      76 -> 79         0.54564
      77 -> 78        -0.17325
      77 -> 81        -0.30301

 Excited State   4:      Singlet-A      4.8593 eV  255.15 nm  f=0.0043  <S**2>=0.000
      76 -> 78        -0.44669
      76 -> 81        -0.11141
      77 -> 79         0.52013

 Excited State   5:      Singlet-A      5.0369 eV  246.15 nm  f=0.0132  <S**2>=0.000
      74 -> 82         0.10785
      75 -> 79         0.15092
      76 -> 78        -0.21949
      76 -> 81        -0.31847
      77 -> 79        -0.14433
      77 -> 80         0.51038

 Excited State   6:      Singlet-A      5.0952 eV  243.34 nm  f=0.0085  <S**2>=0.000
      72 -> 79        -0.11294
      75 -> 78         0.26353
      76 -> 79        -0.36220
      76 -> 80         0.36768
      76 -> 83         0.12419
      77 -> 81        -0.31333

 Excited State   7:      Singlet-A      5.1340 eV  241.50 nm  f=0.0095  <S**2>=0.000
      74 -> 79        -0.14955
      74 -> 80         0.10031
      75 -> 78         0.55032
      75 -> 81         0.10433
      76 -> 80        -0.17952
      77 -> 78         0.18852
      77 -> 81         0.24618

 Excited State   8:      Singlet-A      5.2766 eV  234.97 nm  f=0.1678  <S**2>=0.000
      74 -> 79         0.32467
      75 -> 78         0.12284
      75 -> 81        -0.22588
      76 -> 79         0.13117
      76 -> 80         0.32039
      77 -> 78        -0.11716
      77 -> 81         0.38870
      77 -> 82        -0.15851

 Excited State   9:      Singlet-A      5.3274 eV  232.73 nm  f=0.0143  <S**2>=0.000
      74 -> 78         0.16074
      75 -> 79         0.53108
      76 -> 81        -0.22452
      77 -> 80        -0.31473
      77 -> 83        -0.15095

 Excited State  10:      Singlet-A      5.3824 eV  230.35 nm  f=0.0000  <S**2>=0.000
      74 -> 78         0.22419
      75 -> 79         0.26197
      76 -> 81         0.51288
      77 -> 79         0.13640
      77 -> 80         0.24704
      77 -> 83        -0.13204

 The electronic state is 1-A.
 Alpha  occ. eigenvalues --  -19.19086 -19.19086 -14.33955 -14.33955 -10.25838
 Alpha  occ. eigenvalues --  -10.25838 -10.25156 -10.25156 -10.23405 -10.23405
 Alpha  occ. eigenvalues --  -10.19919 -10.19359 -10.19359 -10.19037 -10.18979
 Alpha  occ. eigenvalues --  -10.18977 -10.18446 -10.18446 -10.18276 -10.18275
 Alpha  occ. eigenvalues --  -10.18254 -10.18254  -1.07934  -1.07788  -0.91816
 Alpha  occ. eigenvalues --   -0.91809  -0.86195  -0.83912  -0.83345  -0.76617
 Alpha  occ. eigenvalues --   -0.76578  -0.73682  -0.73203  -0.72387  -0.72249
 Alpha  occ. eigenvalues --   -0.64784  -0.62690  -0.61544  -0.61194  -0.60633
 Alpha  occ. eigenvalues --   -0.57534  -0.55469  -0.51680  -0.51251  -0.51167
 Alpha  occ. eigenvalues --   -0.50844  -0.49012  -0.48973  -0.48538  -0.46911
 Alpha  occ. eigenvalues --   -0.46571  -0.45107  -0.44807  -0.43694  -0.42509
 Alpha  occ. eigenvalues --   -0.42477  -0.41794  -0.40413  -0.39397  -0.38928
 Alpha  occ. eigenvalues --   -0.38168  -0.37560  -0.37275  -0.36977  -0.36727
 Alpha  occ. eigenvalues --   -0.35583  -0.35042  -0.34452  -0.32672  -0.30649
 Alpha  occ. eigenvalues --   -0.29965  -0.25303  -0.25161  -0.23323  -0.22489
 Alpha  occ. eigenvalues --   -0.20683  -0.20319
 Alpha virt. eigenvalues --   -0.01140  -0.00621   0.00384   0.00708   0.01272
 Alpha virt. eigenvalues --    0.01964   0.09006   0.09193   0.09645   0.10583
 Alpha virt. eigenvalues --    0.10745   0.13004   0.13085   0.15023   0.15222

 Mulliken charges:
               1
     1  N   -0.639441
     2  C    0.261306
     3  C   -0.172742
     4  C    0.303314
     5  O   -0.572987
     6  C    0.301129
     7  C   -0.230427
     8  C    0.301136
     9  O   -0.572996
    10  C    0.303313
    11  C   -0.097304
    12  C   -0.134796
    13  C   -0.115176
    14  C    0.261305
    15  N   -0.639461
    16  C   -0.172736
    17  C   -0.123008
    18  C   -0.178043
    19  C   -0.122997
    20  C   -0.097289
    21  C   -0.134801
    22  C   -0.115168
    23  H    0.295151
    24  H    0.295477
    25  H    0.100867
    26  H    0.077316
    27  H    0.117506
    28  H    0.105763
    29  H    0.104860
    30  H    0.295143
    31  H    0.295469
    32  H    0.100865
    33  H    0.095576
    34  H    0.080143
    35  H    0.095577
    36  H    0.117517
    37  H    0.105766
    38  H    0.104867
 Sum of Mulliken charges =  -0.00000

 Dipole moment (field-independent basis, Debye):
    X=              0.0022    Y=             -0.0007    Z=             -1.4293  Tot=              1.4293
 Quadrupole moment (field-independent basis, Debye-Ang):
   XX=            -18.5241   YY=           -117.1092   ZZ=           -128.7886
   XY=             11.7834   XZ=             -0.0018   YZ=              0.0003

 Summary of Natural Population Analysis:

                                       Natural Population
                Natural  -----------------------------------------------
    Atom  No    Charge         Core      Valence    Rydberg      Total
 -----------------------------------------------------------------------
      N    1   -0.79544      1.99949     5.78485    0.01109     7.79544
      C    2    0.18939      1.99900     3.79390    0.01771     5.81061
      C    3   -0.36219      1.99894     4.34816    0.01508     6.36219
      C    4    0.30287      1.99875     3.67550    0.02288     5.69713
      O    5   -0.49697      1.99970     6.48568    0.01159     8.49697
      C    6    0.29877      1.99875     3.67958    0.02290     5.70123
      C    7   -0.42867      1.99895     4.41083    0.01889     6.42867
      C    8    0.29879      1.99875     3.67956    0.02290     5.70121
      O    9   -0.49698      1.99970     6.48569    0.01159     8.49698
      C   10    0.30287      1.99875     3.67550    0.02288     5.69713
      C   11   -0.26453      1.99900     4.25245    0.01308     6.26453
      C   12   -0.26316      1.99914     4.24808    0.01594     6.26316
      C   13   -0.27971      1.99904     4.26692    0.01375     6.27971
      C   14    0.18939      1.99900     3.79390    0.01771     5.81061
      N   15   -0.79547      1.99949     5.78489    0.01109     7.79547
      C   16   -0.36218      1.99894     4.34815    0.01508     6.36218
      C   17   -0.30940      1.99901     4.29697    0.01341     6.30940
      C   18   -0.32449      1.99914     4.30722    0.01813     6.32449
      C   19   -0.30938      1.99901     4.29696    0.01341     6.30938
      C   20   -0.26449      1.99900     4.25242    0.01308     6.26449
      C   21   -0.26318      1.99914     4.24809    0.01594     6.26318
      C   22   -0.27970      1.99904     4.26691    0.01375     6.27970
      H   23    0.42472      0.00000     0.57277    0.00252     0.57528
      H   24    0.42502      0.00000     0.57268    0.00230     0.57498
      H   25    0.25469      0.00000     0.74349    0.00182     0.74531
      H   26    0.24863      0.00000     0.74940    0.00197     0.75137
      H   27    0.26039      0.00000     0.73823    0.00138     0.73961
      H   28    0.25132      0.00000     0.74731    0.00137     0.74868
      H   29    0.24850      0.00000     0.74998    0.00152     0.75150
      H   30    0.42471      0.00000     0.57277    0.00252     0.57529
      H   31    0.42501      0.00000     0.57269    0.00230     0.57499
      H   32    0.25469      0.00000     0.74349    0.00182     0.74531
      H   33    0.24882      0.00000     0.74976    0.00142     0.75118
      H   34    0.23835      0.00000     0.76033    0.00132     0.76165
      H   35    0.24882      0.00000     0.74976    0.00142     0.75118
      H   36    0.26040      0.00000     0.73823    0.00138     0.73960
      H   37    0.25132      0.00000     0.74731    0.00137     0.74868
      H   38    0.24850      0.00000     0.74998    0.00152     0.75150
 =======================================================================
   * Total *   -0.00000     43.97974   109.64042    0.37984   154.00000

 Normal termination of Gaussian 16 at Wed Jul 17 16:35:22 2024.
