 Gaussian 16, Revision A.03,

 -------------------------------------------------------
 # opt=CalcFc B3LYP/6-31G** SCRF=(Solvent=water) scf=xqc
 -------------------------------------------------------

 ----------------------------------
 DKKYOQYISDAQER-UHFFFAOYSA-N_conf_0
 ----------------------------------
 Symbolic Z-matrix:
 Charge =  0 Multiplicity = 1

 SCF Done:  E(RB3LYP) =  -955.525549749     A.U. after   12 cycles
 SCF Done:  E(RB3LYP) =  -955.530566414     A.U. after   13 cycles
 SCF Done:  E(RB3LYP) =  -955.530971960     A.U. after   13 cycles
 SCF Done:  E(RB3LYP) =  -955.530673220     A.U. after   11 cycles
 SCF Done:  E(RB3LYP) =  -955.531036153     A.U. after   10 cycles
 SCF Done:  E(RB3LYP) =  -955.531041351     A.U. after   10 cycles
 SCF Done:  E(RB3LYP) =  -955.531046076     A.U. after    9 cycles
 SCF Done:  E(RB3LYP) =  -955.531046411     A.U. after    8 cycles
 SCF Done:  E(RB3LYP) =  -955.531046427     A.U. after    7 cycles
 SCF Done:  E(RB3LYP) =  -955.531046419     A.U. after    7 cycles
 Optimization completed.
    -- Stationary point found.
 Normal termination of Gaussian 16 at Wed Jul 17 15:34:36 2024.

 ----------------------------------------------------------------------
 # freq B3LYP/6-31G** SCRF=(Solvent=water) volume NMR pop=NPA density=c
 urrent Geom=AllCheck Guess=Read
 ----------------------------------------------------------------------

 Structure from the checkpoint file:  "DKKYOQYISDAQER-UHFFFAOYSA-N_conf_0_1.chk"
 ----------------------------------
 DKKYOQYISDAQER-UHFFFAOYSA-N_conf_0
 ----------------------------------
 Charge =  0 Multiplicity = 1

 SCF Done:  E(RB3LYP) =  -955.531046419     A.U. after    1 cycles

      1  N    Isotropic =   198.3194   Anisotropy =    74.3285

      2  C    Isotropic =    47.8179   Anisotropy =   160.0625

      3  C    Isotropic =    90.3973   Anisotropy =   106.1396

      4  C    Isotropic =    39.5549   Anisotropy =   112.6465

      5  O    Isotropic =   175.4884   Anisotropy =    80.4339

      6  C    Isotropic =    37.3862   Anisotropy =   118.5621

      7  C    Isotropic =    87.3039   Anisotropy =   112.8575

      8  C    Isotropic =    37.3168   Anisotropy =   118.8944

      9  O    Isotropic =   176.0453   Anisotropy =    81.0975

     10  C    Isotropic =    39.6921   Anisotropy =   112.6272

     11  C    Isotropic =    86.9713   Anisotropy =   127.8360

     12  C    Isotropic =    66.0517   Anisotropy =   167.8477

     13  C    Isotropic =    86.3645   Anisotropy =   127.6638

     14  C    Isotropic =    48.0820   Anisotropy =   159.2012

     15  N    Isotropic =   198.3882   Anisotropy =    73.5629

     16  C    Isotropic =    91.9161   Anisotropy =   113.3271

     17  C    Isotropic =    86.7945   Anisotropy =   142.2181

     18  C    Isotropic =    66.3759   Anisotropy =   168.7119

     19  C    Isotropic =    86.5561   Anisotropy =   141.9920

     20  C    Isotropic =    88.9822   Anisotropy =   134.2747

     21  C    Isotropic =    66.3717   Anisotropy =   166.7882

     22  C    Isotropic =    86.9342   Anisotropy =   126.9802

     23  H    Isotropic =    28.4120   Anisotropy =    11.5470

     24  H    Isotropic =    28.4050   Anisotropy =    12.5674

     25  H    Isotropic =    25.3577   Anisotropy =     7.4979

     26  H    Isotropic =    24.9219   Anisotropy =     7.2955

     27  H    Isotropic =    25.2267   Anisotropy =     5.5496

     28  H    Isotropic =    24.4516   Anisotropy =     3.7845

     29  H    Isotropic =    25.2869   Anisotropy =     4.6700

     30  H    Isotropic =    28.4606   Anisotropy =    12.8062

     31  H    Isotropic =    28.5512   Anisotropy =    11.0633

     32  H    Isotropic =    25.5240   Anisotropy =    10.1700

     33  H    Isotropic =    25.2309   Anisotropy =     9.0455

     34  H    Isotropic =    24.5026   Anisotropy =     5.0701

     35  H    Isotropic =    25.2417   Anisotropy =     9.0953

     36  H    Isotropic =    25.3965   Anisotropy =     8.0902

     37  H    Isotropic =    24.5254   Anisotropy =     4.5646

     38  H    Isotropic =    25.3021   Anisotropy =     4.6392

  Exact polarizability: 412.557   2.241 263.597   0.841  14.826 151.430
 Approx polarizability: 443.552   5.524 331.923   2.093  24.474 195.377

                      1                      2                      3
                      A                      A                      A
 Frequencies --     10.0016                16.0804                22.4799
 Red. masses --      5.7282                 5.4731                 5.1871
 Frc consts  --      0.0003                 0.0008                 0.0015
 IR Inten    --      0.5794                 2.7687                 1.6668

                      4                      5                      6
                      A                      A                      A
 Frequencies --     25.8358                72.8206                86.5361
 Red. masses --      4.5891                 4.7727                 4.9214
 Frc consts  --      0.0018                 0.0149                 0.0217
 IR Inten    --      0.4020                 0.2498                 0.0943

                      7                      8                      9
                      A                      A                      A
 Frequencies --    169.6619               198.5351               216.6466
 Red. masses --      6.2965                 5.4259                 4.6860
 Frc consts  --      0.1068                 0.1260                 0.1296
 IR Inten    --      1.2235                 0.2230                 7.5142

                     10                     11                     12
                      A                      A                      A
 Frequencies --    222.0723               228.1846               231.0627
 Red. masses --      4.1922                 3.8498                 4.0417
 Frc consts  --      0.1218                 0.1181                 0.1271
 IR Inten    --      5.1343                 4.8662                 8.1785

                     13                     14                     15
                      A                      A                      A
 Frequencies --    252.1537               311.7507               326.1875
 Red. masses --      4.2383                 3.5221                 2.0196
 Frc consts  --      0.1588                 0.2017                 0.1266
 IR Inten    --      5.8928                 7.1214                10.3303

                     16                     17                     18
                      A                      A                      A
 Frequencies --    330.6039               332.8649               391.1798
 Red. masses --      1.4539                 1.2388                 5.0474
 Frc consts  --      0.0936                 0.0809                 0.4551
 IR Inten    --     22.8584                29.3783                 0.7775

                     19                     20                     21
                      A                      A                      A
 Frequencies --    438.2687               454.2118               457.1945
 Red. masses --      3.7497                 3.5657                 3.1057
 Frc consts  --      0.4244                 0.4334                 0.3825
 IR Inten    --      7.8534                 0.7185                20.1714

                     22                     23                     24
                      A                      A                      A
 Frequencies --    459.2334               462.1952               531.3982
 Red. masses --      3.0167                 3.0764                 5.7723
 Frc consts  --      0.3748                 0.3872                 0.9604
 IR Inten    --     23.3825                10.1154                40.5865

                     25                     26                     27
                      A                      A                      A
 Frequencies --    532.5379               553.0747               558.1890
 Red. masses --      5.7687                 2.8620                 3.1040
 Frc consts  --      0.9639                 0.5158                 0.5698
 IR Inten    --     63.3729               140.3196                78.0802

                     28                     29                     30
                      A                      A                      A
 Frequencies --    576.1653               583.3865               588.1455
 Red. masses --      5.4575                 1.9516                 2.1288
 Frc consts  --      1.0674                 0.3913                 0.4339
 IR Inten    --     34.1569               346.3352               265.1693

                     31                     32                     33
                      A                      A                      A
 Frequencies --    601.3592               621.4070               656.3314
 Red. masses --      5.9617                 3.9303                 4.7415
 Frc consts  --      1.2702                 0.8942                 1.2034
 IR Inten    --     20.5848               207.9652                30.2076

                     34                     35                     36
                      A                      A                      A
 Frequencies --    684.5845               692.1810               700.3602
 Red. masses --      4.1496                 2.6174                 2.4912
 Frc consts  --      1.1458                 0.7388                 0.7200
 IR Inten    --     13.5110                 7.2987                 9.5969

                     37                     38                     39
                      A                      A                      A
 Frequencies --    706.6692               743.3306               762.3979
 Red. masses --      2.4819                 3.2960                 3.2938
 Frc consts  --      0.7302                 1.0730                 1.1280
 IR Inten    --      0.7661                 9.8462                10.4153

                     40                     41                     42
                      A                      A                      A
 Frequencies --    772.9819               784.7871               785.9633
 Red. masses --      1.5185                 1.6771                 1.6262
 Frc consts  --      0.5346                 0.6086                 0.5919
 IR Inten    --     97.6460                11.3644                31.6764

                     43                     44                     45
                      A                      A                      A
 Frequencies --    796.9935               847.1936               852.6036
 Red. masses --      4.3021                 1.5960                 1.5743
 Frc consts  --      1.6101                 0.6749                 0.6743
 IR Inten    --     25.5056                48.8697                51.0344

                     46                     47                     48
                      A                      A                      A
 Frequencies --    862.2547               866.9360               871.4622
 Red. masses --      1.4279                 1.4364                 1.5565
 Frc consts  --      0.6255                 0.6360                 0.6964
 IR Inten    --     24.7592                 2.3221                19.3277

                     49                     50                     51
                      A                      A                      A
 Frequencies --    880.2238               937.2614               967.2095
 Red. masses --      1.4456                 3.8043                 1.2566
 Frc consts  --      0.6599                 1.9690                 0.6926
 IR Inten    --      0.3798                 6.5366                 0.3637

                     52                     53                     54
                      A                      A                      A
 Frequencies --    968.1925               973.5594               980.9134
 Red. masses --      1.2542                 1.2677                 2.8535
 Frc consts  --      0.6927                 0.7079                 1.6177
 IR Inten    --      0.1740                 0.0516                17.0532

                     55                     56                     57
                      A                      A                      A
 Frequencies --   1007.8172              1009.7982              1011.7795
 Red. masses --      3.6466                 5.7565                 3.1351
 Frc consts  --      2.1822                 3.4584                 1.8909
 IR Inten    --     40.2580                 7.1259               194.1786

                     58                     59                     60
                      A                      A                      A
 Frequencies --   1013.6185              1089.7457              1092.7022
 Red. masses --      5.5384                 1.5688                 1.5823
 Frc consts  --      3.3526                 1.0977                 1.1131
 IR Inten    --     10.4657                 6.4802                 3.9501

                     61                     62                     63
                      A                      A                      A
 Frequencies --   1111.2093              1132.8238              1134.8942
 Red. masses --      1.5364                 1.3072                 1.2776
 Frc consts  --      1.1177                 0.9883                 0.9695
 IR Inten    --     12.0135                 0.1476                 4.2445

                     64                     65                     66
                      A                      A                      A
 Frequencies --   1142.9905              1177.2960              1180.3712
 Red. masses --      1.5199                 1.3750                 1.2186
 Frc consts  --      1.1699                 1.1229                 1.0004
 IR Inten    --     85.8612                90.0679               345.0547

                     67                     68                     69
                      A                      A                      A
 Frequencies --   1189.5944              1196.8053              1211.3612
 Red. masses --      1.1738                 1.6128                 2.3210
 Frc consts  --      0.9787                 1.3610                 2.0067
 IR Inten    --      0.1982                11.7176              1037.1288

                     70                     71                     72
                      A                      A                      A
 Frequencies --   1293.8828              1300.7343              1316.0868
 Red. masses --      4.2194                 1.7754                 2.0487
 Frc consts  --      4.1619                 1.7698                 2.0908
 IR Inten    --     61.4427                97.2771               141.0052

                     73                     74                     75
                      A                      A                      A
 Frequencies --   1321.8441              1345.4330              1347.0258
 Red. masses --      2.0188                 2.1701                 2.2776
 Frc consts  --      2.0782                 2.3145                 2.4349
 IR Inten    --     91.5072                49.4087                18.5166

                     76                     77                     78
                      A                      A                      A
 Frequencies --   1361.6512              1367.2786              1370.3620
 Red. masses --      4.0937                 4.9434                 5.8824
 Frc consts  --      4.4720                 5.4449                 6.5084
 IR Inten    --     45.3542                55.9035                15.7821

                     79                     80                     81
                      A                      A                      A
 Frequencies --   1483.8552              1501.5703              1507.0400
 Red. masses --      3.2946                 2.9937                 3.0547
 Frc consts  --      4.2740                 3.9769                 4.0876
 IR Inten    --     28.9416                65.5568                78.9642

                     82                     83                     84
                      A                      A                      A
 Frequencies --   1518.7825              1532.5218              1534.8169
 Red. masses --      2.5424                 2.6437                 2.6291
 Frc consts  --      3.4553                 3.6583                 3.6490
 IR Inten    --    449.0686                88.6887               136.7678

                     85                     86                     87
                      A                      A                      A
 Frequencies --   1627.1457              1631.2365              1636.7242
 Red. masses --      6.1277                 6.3276                 6.3551
 Frc consts  --      9.5587                 9.9203                10.0305
 IR Inten    --    231.4906               361.8871                61.7661

                     88                     89                     90
                      A                      A                      A
 Frequencies --   1650.7929              1653.5237              1660.1204
 Red. masses --      3.1869                 2.2591                 1.7344
 Frc consts  --      5.1168                 3.6391                 2.8163
 IR Inten    --    194.8083                54.6715               174.2190

                     91                     92                     93
                      A                      A                      A
 Frequencies --   1665.7877              1670.2646              3182.4002
 Red. masses --      1.6710                 3.4104                 1.0869
 Frc consts  --      2.7320                 5.6057                 6.4858
 IR Inten    --    278.6404               181.7005                12.7608

                     94                     95                     96
                      A                      A                      A
 Frequencies --   3183.1763              3195.2081              3197.2234
 Red. masses --      1.0870                 1.0889                 1.0935
 Frc consts  --      6.4891                 6.5497                 6.5857
 IR Inten    --     13.6246                15.6772                38.5445

                     97                     98                     99
                      A                      A                      A
 Frequencies --   3197.9500              3200.9311              3202.1466
 Red. masses --      1.0933                 1.0916                 1.0912
 Frc consts  --      6.5877                 6.5899                 6.5925
 IR Inten    --     36.0595                 5.5353                 3.6272

                    100                    101                    102
                      A                      A                      A
 Frequencies --   3220.7915              3222.5701              3224.2265
 Red. masses --      1.0945                 1.0940                 1.0922
 Frc consts  --      6.6897                 6.6936                 6.6896
 IR Inten    --      8.9604                 6.0657                 1.7416

                    103                    104                    105
                      A                      A                      A
 Frequencies --   3227.4652              3230.7781              3566.0413
 Red. masses --      1.0914                 1.0946                 1.0484
 Frc consts  --      6.6981                 6.7316                 7.8553
 IR Inten    --      8.5799                 1.9563                37.2104

                    106                    107                    108
                      A                      A                      A
 Frequencies --   3566.1464              3669.1415              3669.4668
 Red. masses --      1.0484                 1.0987                 1.0987
 Frc consts  --      7.8558                 8.7145                 8.7164
 IR Inten    --     38.3909                26.4055                26.2171

 - Thermochemistry -
 -------------------
 Temperature   298.150 Kelvin.  Pressure   1.00000 Atm.
 Atom     1 has atomic number  7 and mass  14.00307

 Molecular mass:   292.12118 amu.
 Principal axes and moments of inertia in atomic units:
                           1         2         3
     Eigenvalues --  1907.14080********************
           X            1.00000   0.00179  -0.00023
           Y           -0.00179   0.99999   0.00449
           Z            0.00024  -0.00449   0.99999
 This molecule is an asymmetric top.
 Rotational symmetry number  1.
 Warning -- assumption of classical behavior for rotation
           may cause significant error
 Rotational temperatures (Kelvin)      0.04542     0.00459     0.00439
 Rotational constants (GHZ):           0.94631     0.09568     0.09138
 Zero-point vibrational energy     794994.9 (Joules/Mol)
                                  190.00834 (Kcal/Mol)
 Warning -- explicit consideration of  31 degrees of freedom as
           vibrations may cause significant error
 Vibrational temperatures:     14.39    23.14    32.34    37.17   104.77
          (Kelvin)            124.51   244.11   285.65   311.71   319.51
                              328.31   332.45   362.79   448.54   469.31
                              475.67   478.92   562.82   630.57   653.51
                              657.80   660.73   665.00   764.56   766.20
                              795.75   803.11   828.97   839.36   846.21
                              865.22   894.07   944.31   984.96   995.89
                             1007.66  1016.74  1069.49  1096.92  1112.15
                             1129.13  1130.83  1146.70  1218.92  1226.71
                             1240.59  1247.33  1253.84  1266.45  1348.51
                             1391.60  1393.01  1400.73  1411.32  1450.02
                             1452.87  1455.72  1458.37  1567.90  1572.15
                             1598.78  1629.88  1632.86  1644.51  1693.87
                             1698.29  1711.56  1721.94  1742.88  1861.61
                             1871.47  1893.56  1901.84  1935.78  1938.07
                             1959.11  1967.21  1971.65  2134.94  2160.42
                             2168.29  2185.19  2204.96  2208.26  2341.10
                             2346.99  2354.88  2375.12  2379.05  2388.54
                             2396.70  2403.14  4578.76  4579.88  4597.19
                             4600.09  4601.14  4605.43  4607.17  4634.00
                             4636.56  4638.94  4643.60  4648.37  5130.74
                             5130.89  5279.08  5279.54

 Zero-point correction=                           0.302798 (Hartree/Particle)
 Thermal correction to Energy=                    0.321503
 Thermal correction to Enthalpy=                  0.322447
 Thermal correction to Gibbs Free Energy=         0.252331
 Sum of electronic and zero-point Energies=           -955.228249
 Sum of electronic and thermal Energies=              -955.209543
 Sum of electronic and thermal Enthalpies=            -955.208599
 Sum of electronic and thermal Free Energies=         -955.278715

                     E (Thermal)             CV                S
                      KCal/Mol        Cal/Mol-Kelvin    Cal/Mol-Kelvin
 Total                  201.746             75.015            147.572
 Electronic               0.000              0.000              0.000
 Translational            0.889              2.981             42.913
 Rotational               0.889              2.981             34.917
 Vibrational            199.969             69.054             69.741
 Vibration     1          0.593              1.987              8.011
 Vibration     2          0.593              1.986              7.067
 Vibration     3          0.593              1.985              6.402
 Vibration     4          0.593              1.985              6.126
 Vibration     5          0.599              1.967              4.076
 Vibration     6          0.601              1.959              3.737
 Vibration     7          0.625              1.880              2.439
 Vibration     8          0.637              1.842              2.147
 Vibration     9          0.645              1.816              1.987
 Vibration    10          0.648              1.807              1.942
 Vibration    11          0.651              1.798              1.893
 Vibration    12          0.653              1.794              1.871
 Vibration    13          0.664              1.759              1.715
 Vibration    14          0.700              1.651              1.353
 Vibration    15          0.710              1.623              1.279
 Vibration    16          0.713              1.614              1.257
 Vibration    17          0.715              1.610              1.246
 Vibration    18          0.759              1.489              0.996
 Vibration    19          0.798              1.387              0.832
 Vibration    20          0.813              1.352              0.783
 Vibration    21          0.815              1.345              0.774
 Vibration    22          0.817              1.340              0.768
 Vibration    23          0.820              1.334              0.760
 Vibration    24          0.886              1.181              0.584
 Vibration    25          0.888              1.178              0.582
 Vibration    26          0.908              1.133              0.538
 Vibration    27          0.914              1.122              0.527
 Vibration    28          0.933              1.083              0.493
 Vibration    29          0.940              1.067              0.479
 Vibration    30          0.945              1.057              0.470
 Vibration    31          0.960              1.029              0.447

 Optimization completed.
    -- Stationary point found.
 Normal termination of Gaussian 16 at Wed Jul 17 16:00:18 2024.
 Gaussian 16:  ES64L-G16RevA.03 25-Dec-2016

 ----------------------------------------------------------------------
 # TD(NStates=10, Root=1) B3LYP/6-31G** SCRF=(Solvent=water) volume pop
 =NPA density=current Geom=AllCheck Guess=Read
 ----------------------------------------------------------------------

 Structure from the checkpoint file:  "DKKYOQYISDAQER-UHFFFAOYSA-N_conf_0_2.chk"
 ----------------------------------
 DKKYOQYISDAQER-UHFFFAOYSA-N_conf_0
 ----------------------------------
 Charge =  0 Multiplicity = 1

                         Standard orientation:
 ---------------------------------------------------------------------
 Center     Atomic      Atomic             Coordinates (Angstroms)
 Number     Number       Type             X           Y           Z
 ---------------------------------------------------------------------
      1          7           0       -7.059729   -0.761789   -0.033800
      2          6           0       -5.847797   -0.081969   -0.119928
      3          6           0       -4.641113   -0.791488   -0.258591
      4          6           0       -3.442188   -0.101462   -0.412726
      5          8           0       -2.309387   -0.874442   -0.635824
      6          6           0       -1.143525   -0.626147    0.058809
      7          6           0        0.039673   -0.969786   -0.596783
      8          6           0        1.258434   -0.820379    0.067088
      9          8           0        2.373111   -1.252144   -0.621491
     10          6           0        3.621197   -0.692667   -0.376657
     11          6           0        4.687554   -1.574456   -0.202223
     12          6           0        5.967299   -1.037786   -0.040995
     13          6           0        6.179402    0.337985   -0.045821
     14          6           0        5.096736    1.222006   -0.224743
     15          7           0        5.307328    2.596655   -0.303110
     16          6           0        3.807092    0.689124   -0.397692
     17          6           0        1.307524   -0.323323    1.374001
     18          6           0        0.110680    0.021065    2.003363
     19          6           0       -1.121409   -0.126773    1.365553
     20          6           0       -3.394467    1.295073   -0.431926
     21          6           0       -4.595095    1.991953   -0.281383
     22          6           0       -5.808695    1.325684   -0.127662
     23          1           0       -6.998777   -1.708616    0.317426
     24          1           0       -7.807632   -0.248395    0.414167
     25          1           0       -4.630395   -1.876968   -0.252426
     26          1           0        0.012124   -1.353852   -1.609992
     27          1           0        4.507843   -2.643441   -0.194936
     28          1           0        6.812315   -1.705480    0.099693
     29          1           0        7.180441    0.738568    0.086034
     30          1           0        6.145124    2.926882    0.158080
     31          1           0        4.506783    3.169256   -0.068784
     32          1           0        2.958634    1.348725   -0.549210
     33          1           0        2.255900   -0.213333    1.885555
     34          1           0        0.138000    0.400813    3.020267
     35          1           0       -2.043654    0.134240    1.870181
     36          1           0       -2.452260    1.814207   -0.562791
     37          1           0       -4.583831    3.078085   -0.289768
     38          1           0       -6.731404    1.888015   -0.016711
 ---------------------------------------------------------------------

 SCF Done:  E(RB3LYP) =  -955.531046419     A.U. after    1 cycles

 Excitation energies and oscillator strengths:

 Excited State   1:      Singlet-A      4.6082 eV  269.05 nm  f=0.2674  <S**2>=0.000
      77 -> 78         0.64444
      77 -> 80         0.17665
 This state for optimization and/or second-order correction.
 Total Energy, E(TD-HF/TD-DFT) =  -955.361696777
 Copying the excited state density for this state as the 1-particle RhoCI density.

 Excited State   2:      Singlet-A      4.6974 eV  263.94 nm  f=0.1260  <S**2>=0.000
      76 -> 78         0.31036
      76 -> 79         0.54441
      76 -> 80        -0.21700

 Excited State   3:      Singlet-A      4.8358 eV  256.39 nm  f=0.0604  <S**2>=0.000
      75 -> 78        -0.16098
      75 -> 79         0.11070
      76 -> 78         0.22734
      76 -> 79        -0.17195
      77 -> 79         0.51048
      77 -> 80         0.27763

 Excited State   4:      Singlet-A      4.8757 eV  254.29 nm  f=0.0308  <S**2>=0.000
      76 -> 78         0.55627
      76 -> 79        -0.29744
      77 -> 79        -0.20324
      77 -> 80        -0.16437

 Excited State   5:      Singlet-A      4.9637 eV  249.78 nm  f=0.0201  <S**2>=0.000
      75 -> 78         0.32605
      77 -> 78         0.13288
      77 -> 79         0.38019
      77 -> 80        -0.29906
      77 -> 81        -0.26028

 Excited State   6:      Singlet-A      5.0693 eV  244.58 nm  f=0.0393  <S**2>=0.000
      74 -> 79         0.10917
      75 -> 78         0.48981
      75 -> 79        -0.17169
      77 -> 78        -0.22457
      77 -> 80         0.32460
      77 -> 81         0.15095

 Excited State   7:      Singlet-A      5.1370 eV  241.36 nm  f=0.0408  <S**2>=0.000
      75 -> 79        -0.15410
      76 -> 78         0.16050
      76 -> 79         0.22601
      76 -> 80         0.52513
      76 -> 81        -0.23637
      76 -> 83        -0.14522

 Excited State   8:      Singlet-A      5.2154 eV  237.73 nm  f=0.0353  <S**2>=0.000
      74 -> 79         0.13371
      75 -> 79         0.44927
      75 -> 80        -0.15678
      76 -> 80         0.13285
      77 -> 80        -0.16143
      77 -> 81         0.38886

 Excited State   9:      Singlet-A      5.2722 eV  235.17 nm  f=0.0404  <S**2>=0.000
      74 -> 78        -0.19564
      75 -> 78         0.12000
      75 -> 79         0.41510
      75 -> 80         0.23635
      77 -> 79        -0.18530
      77 -> 80         0.27151
      77 -> 81        -0.28093

 Excited State  10:      Singlet-A      5.4058 eV  229.35 nm  f=0.5168  <S**2>=0.000
      74 -> 78         0.19272
      74 -> 79         0.35114
      74 -> 80         0.10952
      75 -> 78        -0.15381
      75 -> 80        -0.24302
      75 -> 82        -0.14716
      76 -> 80         0.14433
      77 -> 80         0.17461
      77 -> 81        -0.26273
      77 -> 82        -0.21606

 The electronic state is 1-A.
 Alpha  occ. eigenvalues --  -19.19084 -19.19081 -14.33960 -14.33950 -10.25854
 Alpha  occ. eigenvalues --  -10.25834 -10.25147 -10.25146 -10.23449 -10.23404
 Alpha  occ. eigenvalues --  -10.19925 -10.19357 -10.19344 -10.19034 -10.18976
 Alpha  occ. eigenvalues --  -10.18971 -10.18595 -10.18449 -10.18299 -10.18273
 Alpha  occ. eigenvalues --  -10.18254 -10.18156  -1.07926  -1.07779  -0.91821
 Alpha  occ. eigenvalues --   -0.91814  -0.86202  -0.83923  -0.83337  -0.76591
 Alpha  occ. eigenvalues --   -0.76418  -0.73874  -0.73446  -0.72327  -0.72107
 Alpha  occ. eigenvalues --   -0.64808  -0.62839  -0.61472  -0.60822  -0.60661
 Alpha  occ. eigenvalues --   -0.57712  -0.55652  -0.51821  -0.51379  -0.51163
 Alpha  occ. eigenvalues --   -0.50561  -0.49090  -0.48909  -0.48449  -0.46876
 Alpha  occ. eigenvalues --   -0.46454  -0.45159  -0.44676  -0.43758  -0.42755
 Alpha  occ. eigenvalues --   -0.42524  -0.41793  -0.40303  -0.39759  -0.38677
 Alpha  occ. eigenvalues --   -0.38462  -0.37923  -0.37536  -0.36825  -0.35994
 Alpha  occ. eigenvalues --   -0.35316  -0.34889  -0.34651  -0.32498  -0.30680
 Alpha  occ. eigenvalues --   -0.30164  -0.25427  -0.25239  -0.23405  -0.22161
 Alpha  occ. eigenvalues --   -0.20700  -0.20446
 Alpha virt. eigenvalues --   -0.01057  -0.00702   0.00126   0.00779   0.01434
 Alpha virt. eigenvalues --    0.01946   0.09013   0.09189   0.09480   0.10693
 Alpha virt. eigenvalues --    0.10752   0.13023   0.13072   0.15028   0.15362

 Mulliken charges:
               1
     1  N   -0.594983
     2  C    0.260472
     3  C   -0.177040
     4  C    0.292068
     5  O   -0.564607
     6  C    0.289611
     7  C   -0.220276
     8  C    0.313613
     9  O   -0.586887
    10  C    0.307777
    11  C   -0.147304
    12  C   -0.117223
    13  C   -0.131300
    14  C    0.257518
    15  N   -0.676118
    16  C   -0.146019
    17  C   -0.137605
    18  C   -0.168092
    19  C   -0.117065
    20  C   -0.067937
    21  C   -0.150345
    22  C   -0.104401
    23  H    0.312341
    24  H    0.312549
    25  H    0.103216
    26  H    0.080828
    27  H    0.094533
    28  H    0.101461
    29  H    0.093540
    30  H    0.279945
    31  H    0.279772
    32  H    0.102405
    33  H    0.090811
    34  H    0.082845
    35  H    0.099110
    36  H    0.132396
    37  H    0.107551
    38  H    0.112839
 Sum of Mulliken charges =  -0.00000

 Dipole moment (field-independent basis, Debye):
    X=             -8.5688    Y=              3.4881    Z=              3.1578  Tot=              9.7756
 Quadrupole moment (field-independent basis, Debye-Ang):
   XX=            -40.7517   YY=           -113.5749   ZZ=           -132.6595
   XY=             14.6574   XZ=             -2.5467   YZ=              1.4662

 Summary of Natural Population Analysis:

                                       Natural Population
                Natural  -----------------------------------------------
    Atom  No    Charge         Core      Valence    Rydberg      Total
 -----------------------------------------------------------------------
      N    1   -0.71993      1.99948     5.71024    0.01021     7.71993
      C    2    0.19725      1.99900     3.78576    0.01799     5.80275
      C    3   -0.38366      1.99895     4.36698    0.01773     6.38366
      C    4    0.28192      1.99876     3.69559    0.02374     5.71808
      O    5   -0.48552      1.99971     6.47404    0.01177     8.48552
      C    6    0.27726      1.99875     3.70091    0.02308     5.72274
      C    7   -0.41057      1.99895     4.39352    0.01810     6.41057
      C    8    0.31879      1.99875     3.65993    0.02254     5.68121
      O    9   -0.51562      1.99970     6.50449    0.01144     8.51562
      C   10    0.31156      1.99874     3.66750    0.02220     5.68844
      C   11   -0.32697      1.99899     4.31396    0.01402     6.32697
      C   12   -0.22153      1.99913     4.20860    0.01380     6.22153
      C   13   -0.30777      1.99904     4.29633    0.01240     6.30777
      C   14    0.17532      1.99900     3.80795    0.01772     5.82468
      N   15   -0.85647      1.99951     5.84528    0.01168     7.85647
      C   16   -0.34159      1.99893     4.33101    0.01165     6.34159
      C   17   -0.34052      1.99901     4.32757    0.01394     6.34052
      C   18   -0.30479      1.99914     4.28817    0.01748     6.30479
      C   19   -0.29804      1.99902     4.28639    0.01262     6.29804
      C   20   -0.19425      1.99900     4.18203    0.01322     6.19425
      C   21   -0.30370      1.99916     4.28660    0.01795     6.30370
      C   22   -0.26186      1.99905     4.24719    0.01562     6.26186
      H   23    0.43360      0.00000     0.56373    0.00266     0.56640
      H   24    0.43363      0.00000     0.56402    0.00235     0.56637
      H   25    0.25582      0.00000     0.74240    0.00179     0.74418
      H   26    0.25014      0.00000     0.74784    0.00202     0.74986
      H   27    0.25240      0.00000     0.74596    0.00164     0.74760
      H   28    0.24862      0.00000     0.75002    0.00136     0.75138
      H   29    0.24472      0.00000     0.75383    0.00145     0.75528
      H   30    0.41651      0.00000     0.58120    0.00230     0.58349
      H   31    0.41625      0.00000     0.58140    0.00234     0.58375
      H   32    0.25429      0.00000     0.74414    0.00157     0.74571
      H   33    0.24818      0.00000     0.75038    0.00144     0.75182
      H   34    0.23940      0.00000     0.75926    0.00134     0.76060
      H   35    0.25014      0.00000     0.74848    0.00138     0.74986
      H   36    0.26381      0.00000     0.73488    0.00131     0.73619
      H   37    0.25249      0.00000     0.74613    0.00138     0.74751
      H   38    0.25071      0.00000     0.74768    0.00161     0.74929
 =======================================================================
   * Total *   -0.00000     43.97976   109.64139    0.37885   154.00000

 Normal termination of Gaussian 16 at Wed Jul 17 16:24:13 2024.
