 Gaussian 16, Revision A.03,

 -------------------------------------------------------
 # opt=CalcFc B3LYP/6-31G** SCRF=(Solvent=water) scf=xqc
 -------------------------------------------------------

 ----------------------------------
 DKKYOQYISDAQER-UHFFFAOYSA-N_conf_4
 ----------------------------------
 Symbolic Z-matrix:
 Charge =  0 Multiplicity = 1

 SCF Done:  E(RB3LYP) =  -955.525645588     A.U. after   12 cycles
 SCF Done:  E(RB3LYP) =  -955.530819233     A.U. after   12 cycles
 SCF Done:  E(RB3LYP) =  -955.531063446     A.U. after   13 cycles
 SCF Done:  E(RB3LYP) =  -955.530652902     A.U. after   12 cycles
 SCF Done:  E(RB3LYP) =  -955.531235528     A.U. after   10 cycles
 SCF Done:  E(RB3LYP) =  -955.531249841     A.U. after    9 cycles
 SCF Done:  E(RB3LYP) =  -955.531250401     A.U. after    7 cycles
 SCF Done:  E(RB3LYP) =  -955.531250493     A.U. after    7 cycles
 SCF Done:  E(RB3LYP) =  -955.531250496     A.U. after    7 cycles
 SCF Done:  E(RB3LYP) =  -955.531250499     A.U. after    6 cycles
 Optimization completed.
    -- Stationary point found.
 Normal termination of Gaussian 16 at Wed Jul 17 15:44:50 2024.

 ----------------------------------------------------------------------
 # freq B3LYP/6-31G** SCRF=(Solvent=water) volume NMR pop=NPA density=c
 urrent Geom=AllCheck Guess=Read
 ----------------------------------------------------------------------

 Structure from the checkpoint file:  "DKKYOQYISDAQER-UHFFFAOYSA-N_conf_4_1.chk"
 ----------------------------------
 DKKYOQYISDAQER-UHFFFAOYSA-N_conf_4
 ----------------------------------
 Charge =  0 Multiplicity = 1

 SCF Done:  E(RB3LYP) =  -955.531250499     A.U. after    1 cycles

      1  N    Isotropic =   198.3475   Anisotropy =    74.2576

      2  C    Isotropic =    47.8398   Anisotropy =   160.0564

      3  C    Isotropic =    90.6453   Anisotropy =   105.9257

      4  C    Isotropic =    39.5091   Anisotropy =   112.7612

      5  O    Isotropic =   175.0482   Anisotropy =    83.8271

      6  C    Isotropic =    37.4891   Anisotropy =   118.1542

      7  C    Isotropic =    86.9483   Anisotropy =   112.8093

      8  C    Isotropic =    37.4886   Anisotropy =   118.1551

      9  O    Isotropic =   175.0483   Anisotropy =    83.8250

     10  C    Isotropic =    39.5094   Anisotropy =   112.7608

     11  C    Isotropic =    89.3172   Anisotropy =   134.4849

     12  C    Isotropic =    66.4382   Anisotropy =   166.7878

     13  C    Isotropic =    87.0222   Anisotropy =   126.7413

     14  C    Isotropic =    47.8398   Anisotropy =   160.0565

     15  N    Isotropic =   198.3474   Anisotropy =    74.2575

     16  C    Isotropic =    90.6448   Anisotropy =   105.9266

     17  C    Isotropic =    86.3447   Anisotropy =   142.6839

     18  C    Isotropic =    66.4512   Anisotropy =   168.7659

     19  C    Isotropic =    86.3443   Anisotropy =   142.6839

     20  C    Isotropic =    89.3180   Anisotropy =   134.4848

     21  C    Isotropic =    66.4382   Anisotropy =   166.7876

     22  C    Isotropic =    87.0225   Anisotropy =   126.7407

     23  H    Isotropic =    28.4096   Anisotropy =    11.5299

     24  H    Isotropic =    28.4095   Anisotropy =    12.5639

     25  H    Isotropic =    25.3544   Anisotropy =     7.4855

     26  H    Isotropic =    24.9227   Anisotropy =     7.4025

     27  H    Isotropic =    25.4530   Anisotropy =     8.2977

     28  H    Isotropic =    24.5546   Anisotropy =     4.5121

     29  H    Isotropic =    25.3211   Anisotropy =     4.5870

     30  H    Isotropic =    28.4095   Anisotropy =    12.5639

     31  H    Isotropic =    28.4096   Anisotropy =    11.5299

     32  H    Isotropic =    25.3544   Anisotropy =     7.4855

     33  H    Isotropic =    25.1965   Anisotropy =     9.1217

     34  H    Isotropic =    24.4991   Anisotropy =     5.0910

     35  H    Isotropic =    25.1964   Anisotropy =     9.1214

     36  H    Isotropic =    25.4530   Anisotropy =     8.2979

     37  H    Isotropic =    24.5546   Anisotropy =     4.5121

     38  H    Isotropic =    25.3211   Anisotropy =     4.5870

  Exact polarizability: 427.767  28.974 230.400   0.002   0.001 174.581
 Approx polarizability: 456.860  38.030 287.673   0.002   0.001 228.408

                      1                      2                      3
                      A                      A                      A
 Frequencies --     10.6797                15.1754                27.9967
 Red. masses --      5.6878                 5.9973                 4.6883
 Frc consts  --      0.0004                 0.0008                 0.0022
 IR Inten    --      1.5024                 0.9299                 0.7891

                      4                      5                      6
                      A                      A                      A
 Frequencies --     31.3585                60.0052               101.6804
 Red. masses --      5.1869                 5.2106                 4.5760
 Frc consts  --      0.0030                 0.0111                 0.0279
 IR Inten    --      0.3280                 0.0361                 0.0654

                      7                      8                      9
                      A                      A                      A
 Frequencies --    161.7225               199.3894               210.4259
 Red. masses --      6.2239                 5.5001                 4.9874
 Frc consts  --      0.0959                 0.1288                 0.1301
 IR Inten    --      0.0364                 7.6777                 4.4574

                     10                     11                     12
                      A                      A                      A
 Frequencies --    222.2958               223.6152               243.2141
 Red. masses --      4.0441                 3.8482                 3.9790
 Frc consts  --      0.1177                 0.1134                 0.1387
 IR Inten    --     18.6832                 6.8774                 0.3248

                     13                     14                     15
                      A                      A                      A
 Frequencies --    247.7667               299.1955               319.0217
 Red. masses --      4.0772                 4.3172                 2.0778
 Frc consts  --      0.1475                 0.2277                 0.1246
 IR Inten    --      2.7573                18.8899                 4.4277

                     16                     17                     18
                      A                      A                      A
 Frequencies --    331.1466               335.3173               400.1516
 Red. masses --      1.1124                 1.5458                 4.9038
 Frc consts  --      0.0719                 0.1024                 0.4626
 IR Inten    --     49.6088                 5.7482                 7.3477

                     19                     20                     21
                      A                      A                      A
 Frequencies --    438.3940               451.8794               459.5669
 Red. masses --      3.7469                 3.5750                 2.9809
 Frc consts  --      0.4243                 0.4301                 0.3709
 IR Inten    --      6.4254                 1.7986                14.9928

                     22                     23                     24
                      A                      A                      A
 Frequencies --    459.5871               464.6132               529.9324
 Red. masses --      2.9788                 3.2900                 5.5396
 Frc consts  --      0.3707                 0.4184                 0.9166
 IR Inten    --     29.8223                 5.6573                31.2502

                     25                     26                     27
                      A                      A                      A
 Frequencies --    531.5460               544.1581               557.5234
 Red. masses --      6.3260                 4.2211                 2.4194
 Frc consts  --      1.0531                 0.7364                 0.4431
 IR Inten    --     45.5873                 9.6335               252.8900

                     28                     29                     30
                      A                      A                      A
 Frequencies --    578.7171               579.3075               601.3174
 Red. masses --      1.6713                 4.1096                 7.6194
 Frc consts  --      0.3298                 0.8126                 1.6232
 IR Inten    --    298.4883                70.6598                 0.2084

                     31                     32                     33
                      A                      A                      A
 Frequencies --    603.0151               625.1921               668.9449
 Red. masses --      2.4623                 3.8738                 4.4492
 Frc consts  --      0.5275                 0.8921                 1.1731
 IR Inten    --    429.8115                72.5432                52.0840

                     34                     35                     36
                      A                      A                      A
 Frequencies --    671.9941               692.7075               700.2954
 Red. masses --      5.0101                 2.6345                 2.4638
 Frc consts  --      1.3330                 0.7448                 0.7119
 IR Inten    --      7.0864                17.3536                 5.6485

                     37                     38                     39
                      A                      A                      A
 Frequencies --    707.5033               752.8336               759.8668
 Red. masses --      2.3504                 3.0560                 3.1247
 Frc consts  --      0.6932                 1.0205                 1.0630
 IR Inten    --      1.5228                25.4717                16.9440

                     40                     41                     42
                      A                      A                      A
 Frequencies --    772.7877               777.4150               787.7880
 Red. masses --      1.3964                 2.2351                 1.6708
 Frc consts  --      0.4914                 0.7959                 0.6110
 IR Inten    --     61.3684                41.1601                12.5000

                     43                     44                     45
                      A                      A                      A
 Frequencies --    790.8729               851.0317               852.2485
 Red. masses --      3.5445                 1.5606                 1.5884
 Frc consts  --      1.3062                 0.6659                 0.6797
 IR Inten    --     35.0512                12.0926                77.5347

                     46                     47                     48
                      A                      A                      A
 Frequencies --    861.6025               865.0296               870.1568
 Red. masses --      1.4134                 1.4403                 1.5726
 Frc consts  --      0.6182                 0.6350                 0.7016
 IR Inten    --     26.3008                13.8088                12.2538

                     49                     50                     51
                      A                      A                      A
 Frequencies --    881.1427               932.0150               966.9187
 Red. masses --      1.4553                 3.8199                 1.2573
 Frc consts  --      0.6657                 1.9550                 0.6926
 IR Inten    --      2.7112                 0.4753                 0.9489

                     52                     53                     54
                      A                      A                      A
 Frequencies --    967.1161               973.5890               980.6800
 Red. masses --      1.2570                 1.2629                 2.8476
 Frc consts  --      0.6927                 0.7053                 1.6136
 IR Inten    --      0.1619                 1.5059                 0.7763

                     55                     56                     57
                      A                      A                      A
 Frequencies --   1007.9772              1009.4850              1012.0033
 Red. masses --      4.0203                 5.8816                 2.7312
 Frc consts  --      2.4066                 3.5314                 1.6480
 IR Inten    --     24.0138                 0.0402               246.3304

                     58                     59                     60
                      A                      A                      A
 Frequencies --   1013.4710              1092.6835              1092.7164
 Red. masses --      5.9698                 1.5748                 1.5852
 Frc consts  --      3.6127                 1.1078                 1.1152
 IR Inten    --      0.2220                 8.6050                 0.0008

                     61                     62                     63
                      A                      A                      A
 Frequencies --   1110.6766              1134.5147              1135.3046
 Red. masses --      1.5298                 1.3268                 1.2655
 Frc consts  --      1.1119                 1.0062                 0.9610
 IR Inten    --     11.6474                 7.3544                 1.1385

                     64                     65                     66
                      A                      A                      A
 Frequencies --   1142.5062              1176.8810              1179.8407
 Red. masses --      1.5053                 1.4395                 1.2288
 Frc consts  --      1.1577                 1.1747                 1.0078
 IR Inten    --     57.2138                 1.9550               479.2106

                     67                     68                     69
                      A                      A                      A
 Frequencies --   1190.4973              1197.3270              1211.5021
 Red. masses --      1.1535                 1.5351                 2.3283
 Frc consts  --      0.9632                 1.2966                 2.0135
 IR Inten    --     12.2590                 0.3512              1144.1872

                     70                     71                     72
                      A                      A                      A
 Frequencies --   1296.5918              1299.7868              1316.9467
 Red. masses --      5.8675                 1.6585                 1.9813
 Frc consts  --      5.8117                 1.6508                 2.0246
 IR Inten    --     72.9105               188.6021                 0.2445

                     73                     74                     75
                      A                      A                      A
 Frequencies --   1318.6815              1345.3265              1347.9199
 Red. masses --      2.0620                 2.1854                 2.2693
 Frc consts  --      2.1127                 2.3304                 2.4292
 IR Inten    --     96.8876                32.4804                 0.1176

                     76                     77                     78
                      A                      A                      A
 Frequencies --   1361.7599              1367.8756              1370.4841
 Red. masses --      3.7938                 4.9740                 5.9595
 Frc consts  --      4.1450                 5.4834                 6.5949
 IR Inten    --    103.3568                 2.4648                16.1044

                     79                     80                     81
                      A                      A                      A
 Frequencies --   1483.0600              1504.7568              1509.9541
 Red. masses --      3.2954                 3.0105                 3.1187
 Frc consts  --      4.2705                 4.0162                 4.1895
 IR Inten    --      8.7296               149.8728                 4.7464

                     82                     83                     84
                      A                      A                      A
 Frequencies --   1517.8793              1532.1717              1533.0122
 Red. masses --      2.5073                 2.6220                 2.6546
 Frc consts  --      3.4035                 3.6266                 3.6758
 IR Inten    --    550.3040                 0.0957               164.7519

                     85                     86                     87
                      A                      A                      A
 Frequencies --   1626.6268              1628.5909              1638.4806
 Red. masses --      6.1340                 6.1182                 6.6826
 Frc consts  --      9.5624                 9.5609                10.5701
 IR Inten    --     11.4712               383.8181                88.3224

                     88                     89                     90
                      A                      A                      A
 Frequencies --   1645.6856              1654.9399              1659.7275
 Red. masses --      4.2845                 1.6961                 1.4085
 Frc consts  --      6.8366                 2.7370                 2.2861
 IR Inten    --    551.5481                18.7773               239.3811

                     91                     92                     93
                      A                      A                      A
 Frequencies --   1667.3822              1671.9858              3182.3255
 Red. masses --      2.2477                 4.0376                 1.0869
 Frc consts  --      3.6818                 6.6503                 6.4855
 IR Inten    --      0.0122               311.7354                24.7476

                     94                     95                     96
                      A                      A                      A
 Frequencies --   3182.3287              3195.4586              3197.1286
 Red. masses --      1.0869                 1.0888                 1.0936
 Frc consts  --      6.4855                 6.5504                 6.5858
 IR Inten    --      0.4675                14.6588                67.3594

                     97                     98                     99
                      A                      A                      A
 Frequencies --   3197.1580              3200.7993              3200.8133
 Red. masses --      1.0935                 1.0916                 1.0916
 Frc consts  --      6.5857                 6.5893                 6.5894
 IR Inten    --      9.0043                10.0473                 0.6886

                    100                    101                    102
                      A                      A                      A
 Frequencies --   3223.2512              3223.2682              3224.3371
 Red. masses --      1.0939                 1.0939                 1.0922
 Frc consts  --      6.6959                 6.6958                 6.6902
 IR Inten    --     12.2259                 0.0542                 1.5993

                    103                    104                    105
                      A                      A                      A
 Frequencies --   3226.8945              3230.2315              3566.2165
 Red. masses --      1.0914                 1.0947                 1.0484
 Frc consts  --      6.6957                 6.7300                 7.8560
 IR Inten    --      8.5099                 1.8943                71.0927

                    106                    107                    108
                      A                      A                      A
 Frequencies --   3566.2181              3669.5848              3669.5848
 Red. masses --      1.0484                 1.0987                 1.0987
 Frc consts  --      7.8560                 8.7171                 8.7171
 IR Inten    --      5.8230                20.3909                31.9069

 - Thermochemistry -
 -------------------
 Temperature   298.150 Kelvin.  Pressure   1.00000 Atm.
 Atom     1 has atomic number  7 and mass  14.00307

 Molecular mass:   292.12118 amu.
 Principal axes and moments of inertia in atomic units:
                           1         2         3
     Eigenvalues --  1514.21258********************
           X            1.00000   0.00166   0.00000
           Y           -0.00166   1.00000  -0.00000
           Z           -0.00000   0.00000   1.00000
 This molecule is an asymmetric top.
 Rotational symmetry number  1.
 Warning -- assumption of classical behavior for rotation
           may cause significant error
 Rotational temperatures (Kelvin)      0.05720     0.00421     0.00415
 Rotational constants (GHZ):           1.19187     0.08777     0.08652
 Zero-point vibrational energy     794990.7 (Joules/Mol)
                                  190.00733 (Kcal/Mol)
 Warning -- explicit consideration of  31 degrees of freedom as
           vibrations may cause significant error
 Vibrational temperatures:     15.37    21.83    40.28    45.12    86.33
          (Kelvin)            146.30   232.68   286.88   302.76   319.83
                              321.73   349.93   356.48   430.48   459.00
                              476.45   482.45   575.73   630.75   650.15
                              661.21   661.24   668.47   762.45   764.78
                              782.92   802.15   832.64   833.49   865.16
                              867.60   899.51   962.46   966.85   996.65
                             1007.57  1017.94  1083.16  1093.28  1111.87
                             1118.53  1133.45  1137.89  1224.44  1226.20
                             1239.65  1244.58  1251.96  1267.77  1340.96
                             1391.18  1391.46  1400.78  1410.98  1450.25
                             1452.42  1456.05  1458.16  1572.13  1572.18
                             1598.02  1632.31  1633.45  1643.81  1693.27
                             1697.53  1712.86  1722.69  1743.08  1865.51
                             1870.10  1894.79  1897.29  1935.62  1939.36
                             1959.27  1968.07  1971.82  2133.79  2165.01
                             2172.49  2183.89  2204.45  2205.66  2340.35
                             2343.18  2357.41  2367.77  2381.09  2387.98
                             2398.99  2405.61  4578.66  4578.66  4597.55
                             4599.96  4600.00  4605.24  4605.26  4637.54
                             4637.56  4639.10  4642.78  4647.58  5130.99
                             5130.99  5279.71  5279.71

 Zero-point correction=                           0.302796 (Hartree/Particle)
 Thermal correction to Energy=                    0.321500
 Thermal correction to Enthalpy=                  0.322444
 Thermal correction to Gibbs Free Energy=         0.252661
 Sum of electronic and zero-point Energies=           -955.228455
 Sum of electronic and thermal Energies=              -955.209750
 Sum of electronic and thermal Enthalpies=            -955.208806
 Sum of electronic and thermal Free Energies=         -955.278589

                     E (Thermal)             CV                S
                      KCal/Mol        Cal/Mol-Kelvin    Cal/Mol-Kelvin
 Total                  201.744             75.025            146.870
 Electronic               0.000              0.000              0.000
 Translational            0.889              2.981             42.913
 Rotational               0.889              2.981             34.828
 Vibrational            199.967             69.063             69.128
 Vibration     1          0.593              1.987              7.880
 Vibration     2          0.593              1.986              7.182
 Vibration     3          0.593              1.984              5.967
 Vibration     4          0.594              1.983              5.742
 Vibration     5          0.597              1.973              4.457
 Vibration     6          0.604              1.948              3.422
 Vibration     7          0.622              1.889              2.530
 Vibration     8          0.638              1.841              2.139
 Vibration     9          0.643              1.825              2.040
 Vibration    10          0.648              1.807              1.940
 Vibration    11          0.649              1.805              1.930
 Vibration    12          0.659              1.774              1.779
 Vibration    13          0.661              1.766              1.746
 Vibration    14          0.692              1.675              1.421
 Vibration    15          0.705              1.637              1.315
 Vibration    16          0.714              1.613              1.254
 Vibration    17          0.716              1.605              1.234
 Vibration    18          0.766              1.470              0.962
 Vibration    19          0.799              1.386              0.832
 Vibration    20          0.811              1.357              0.790
 Vibration    21          0.817              1.340              0.767
 Vibration    22          0.818              1.340              0.767
 Vibration    23          0.822              1.329              0.753
 Vibration    24          0.885              1.184              0.587
 Vibration    25          0.887              1.180              0.584
 Vibration    26          0.899              1.152              0.556
 Vibration    27          0.913              1.123              0.529
 Vibration    28          0.935              1.077              0.488
 Vibration    29          0.936              1.076              0.487
 Vibration    30          0.960              1.029              0.447
 Vibration    31          0.961              1.025              0.444

 Optimization completed.
    -- Stationary point found.
 Normal termination of Gaussian 16 at Wed Jul 17 16:13:57 2024.
 Gaussian 16:  ES64L-G16RevA.03 25-Dec-2016

 ----------------------------------------------------------------------
 # TD(NStates=10, Root=1) B3LYP/6-31G** SCRF=(Solvent=water) volume pop
 =NPA density=current Geom=AllCheck Guess=Read
 ----------------------------------------------------------------------

 Structure from the checkpoint file:  "DKKYOQYISDAQER-UHFFFAOYSA-N_conf_4_2.chk"
 ----------------------------------
 DKKYOQYISDAQER-UHFFFAOYSA-N_conf_4
 ----------------------------------
 Charge =  0 Multiplicity = 1

                         Standard orientation:
 ---------------------------------------------------------------------
 Center     Atomic      Atomic             Coordinates (Angstroms)
 Number     Number       Type             X           Y           Z
 ---------------------------------------------------------------------
      1          7           0       -6.996548   -1.315831   -0.475817
      2          6           0       -5.931574   -0.448133   -0.249157
      3          6           0       -4.620044   -0.825131   -0.589925
      4          6           0       -3.571648    0.075633   -0.424458
      5          8           0       -2.325193   -0.343446   -0.871780
      6          6           0       -1.196860   -0.137768   -0.104840
      7          6           0       -0.000009   -0.000057   -0.809491
      8          6           0        1.196858    0.137674   -0.104867
      9          8           0        2.325173    0.343320   -0.871840
     10          6           0        3.571648   -0.075678   -0.424491
     11          6           0        3.780634   -1.362205    0.079870
     12          6           0        5.083745   -1.723941    0.427819
     13          6           0        6.150544   -0.842306    0.270270
     14          6           0        5.931542    0.448218   -0.249157
     15          7           0        6.996472    1.315971   -0.475811
     16          6           0        4.619997    0.825141   -0.589951
     17          6           0        1.209321    0.147066    1.294097
     18          6           0        0.000019   -0.000017    1.974425
     19          6           0       -1.209297   -0.147120    1.294125
     20          6           0       -3.780574    1.362177    0.079884
     21          6           0       -5.083671    1.723988    0.427808
     22          6           0       -6.150516    0.842409    0.270252
     23          1           0       -6.755453   -2.298143   -0.498466
     24          1           0       -7.813962   -1.148460    0.096375
     25          1           0       -4.411188   -1.812935   -0.988723
     26          1           0       -0.000020   -0.000073   -1.893402
     27          1           0        2.953711   -2.053411    0.192452
     28          1           0        5.271016   -2.717322    0.825332
     29          1           0        7.157033   -1.146141    0.543435
     30          1           0        7.813887    1.148649    0.096395
     31          1           0        6.755325    2.298269   -0.498475
     32          1           0        4.411094    1.812929   -0.988766
     33          1           0        2.140275    0.267130    1.834722
     34          1           0        0.000030   -0.000001    3.060249
     35          1           0       -2.140240   -0.267169    1.834771
     36          1           0       -2.953617    2.053341    0.192473
     37          1           0       -5.270895    2.717383    0.825305
     38          1           0       -7.156992    1.146302    0.543397
 ---------------------------------------------------------------------

 SCF Done:  E(RB3LYP) =  -955.531250499     A.U. after    1 cycles

 Excitation energies and oscillator strengths:

 Excited State   1:      Singlet-A      4.5575 eV  272.04 nm  f=0.4348  <S**2>=0.000
      75 -> 78         0.10860
      76 -> 79         0.17523
      76 -> 80        -0.12880
      77 -> 78         0.64356
 This state for optimization and/or second-order correction.
 Total Energy, E(TD-HF/TD-DFT) =  -955.363764140
 Copying the excited state density for this state as the 1-particle RhoCI density.

 Excited State   2:      Singlet-A      4.6658 eV  265.73 nm  f=0.0009  <S**2>=0.000
      76 -> 78         0.48377
      76 -> 81        -0.13323
      77 -> 79         0.42182
      77 -> 80        -0.18620

 Excited State   3:      Singlet-A      4.8402 eV  256.15 nm  f=0.0431  <S**2>=0.000
      74 -> 83        -0.10418
      75 -> 78        -0.13527
      76 -> 79         0.55259
      77 -> 78        -0.17162
      77 -> 81        -0.29964

 Excited State   4:      Singlet-A      4.8471 eV  255.79 nm  f=0.0039  <S**2>=0.000
      76 -> 78        -0.44290
      77 -> 79         0.52402

 Excited State   5:      Singlet-A      5.0221 eV  246.88 nm  f=0.0109  <S**2>=0.000
      74 -> 82        -0.10896
      75 -> 79         0.14504
      76 -> 78         0.23334
      76 -> 81         0.31968
      77 -> 79         0.13616
      77 -> 80         0.51011

 Excited State   6:      Singlet-A      5.0803 eV  244.05 nm  f=0.0085  <S**2>=0.000
      72 -> 79        -0.10398
      75 -> 78         0.18116
      76 -> 79         0.35754
      76 -> 80         0.39151
      76 -> 83        -0.12640
      77 -> 81         0.34920

 Excited State   7:      Singlet-A      5.1385 eV  241.29 nm  f=0.0082  <S**2>=0.000
      72 -> 79        -0.10146
      74 -> 79        -0.15724
      75 -> 78         0.58156
      75 -> 81         0.10660
      76 -> 80        -0.12799
      77 -> 78        -0.19154
      77 -> 81        -0.18506

 Excited State   8:      Singlet-A      5.2769 eV  234.96 nm  f=0.1629  <S**2>=0.000
      74 -> 79        -0.31589
      75 -> 78        -0.13022
      75 -> 81         0.20861
      76 -> 79         0.13290
      76 -> 80        -0.32177
      77 -> 78        -0.11451
      77 -> 81         0.39814
      77 -> 82         0.16980

 Excited State   9:      Singlet-A      5.3298 eV  232.63 nm  f=0.0161  <S**2>=0.000
      74 -> 78         0.15343
      75 -> 79         0.51631
      76 -> 81         0.25585
      77 -> 80        -0.32439
      77 -> 83         0.14003

 Excited State  10:      Singlet-A      5.3805 eV  230.43 nm  f=0.0000  <S**2>=0.000
      74 -> 78        -0.22682
      75 -> 79        -0.29325
      76 -> 81         0.50240
      77 -> 79         0.12883
      77 -> 80        -0.23043
      77 -> 83        -0.13650

 The electronic state is 1-A.
 Alpha  occ. eigenvalues --  -19.19107 -19.19107 -14.33958 -14.33958 -10.25848
 Alpha  occ. eigenvalues --  -10.25848 -10.25170 -10.25170 -10.23400 -10.23400
 Alpha  occ. eigenvalues --  -10.19938 -10.19356 -10.19356 -10.19061 -10.19008
 Alpha  occ. eigenvalues --  -10.19007 -10.18436 -10.18436 -10.18269 -10.18269
 Alpha  occ. eigenvalues --  -10.18243 -10.18243  -1.07951  -1.07804  -0.91815
 Alpha  occ. eigenvalues --   -0.91808  -0.86215  -0.83910  -0.83346  -0.76640
 Alpha  occ. eigenvalues --   -0.76591  -0.73682  -0.73193  -0.72397  -0.72253
 Alpha  occ. eigenvalues --   -0.64795  -0.62727  -0.61546  -0.61196  -0.60631
 Alpha  occ. eigenvalues --   -0.57535  -0.55489  -0.51692  -0.51258  -0.51159
 Alpha  occ. eigenvalues --   -0.50848  -0.49003  -0.48974  -0.48614  -0.46848
 Alpha  occ. eigenvalues --   -0.46474  -0.45105  -0.44810  -0.43740  -0.42528
 Alpha  occ. eigenvalues --   -0.42504  -0.41813  -0.40367  -0.39476  -0.38846
 Alpha  occ. eigenvalues --   -0.38278  -0.38040  -0.37425  -0.36806  -0.36556
 Alpha  occ. eigenvalues --   -0.35122  -0.35087  -0.34707  -0.32383  -0.30666
 Alpha  occ. eigenvalues --   -0.30135  -0.25326  -0.25178  -0.23328  -0.22521
 Alpha  occ. eigenvalues --   -0.20666  -0.20295
 Alpha virt. eigenvalues --   -0.01144  -0.00647   0.00361   0.00712   0.01276
 Alpha virt. eigenvalues --    0.02009   0.09149   0.09190   0.09347   0.10600
 Alpha virt. eigenvalues --    0.10871   0.13039   0.13086   0.15098   0.15125

 Mulliken charges:
               1
     1  N   -0.639456
     2  C    0.262082
     3  C   -0.173619
     4  C    0.304429
     5  O   -0.572489
     6  C    0.300255
     7  C   -0.231141
     8  C    0.300258
     9  O   -0.572492
    10  C    0.304427
    11  C   -0.097773
    12  C   -0.134543
    13  C   -0.115222
    14  C    0.262081
    15  N   -0.639461
    16  C   -0.173617
    17  C   -0.122692
    18  C   -0.178777
    19  C   -0.122688
    20  C   -0.097769
    21  C   -0.134544
    22  C   -0.115220
    23  H    0.295291
    24  H    0.295354
    25  H    0.101098
    26  H    0.077020
    27  H    0.117793
    28  H    0.106002
    29  H    0.105029
    30  H    0.295351
    31  H    0.295289
    32  H    0.101097
    33  H    0.095118
    34  H    0.079576
    35  H    0.095118
    36  H    0.117797
    37  H    0.106004
    38  H    0.105031
 Sum of Mulliken charges =  -0.00000

 Dipole moment (field-independent basis, Debye):
    X=             -0.0008    Y=              0.0003    Z=              2.9900  Tot=              2.9900
 Quadrupole moment (field-independent basis, Debye-Ang):
   XX=            -28.7545   YY=           -111.7111   ZZ=           -132.7300
   XY=             22.6009   XZ=              0.0004   YZ=              0.0001

 Summary of Natural Population Analysis:

                                       Natural Population
                Natural  -----------------------------------------------
    Atom  No    Charge         Core      Valence    Rydberg      Total
 -----------------------------------------------------------------------
      N    1   -0.79482      1.99950     5.78423    0.01110     7.79482
      C    2    0.18910      1.99900     3.79416    0.01773     5.81090
      C    3   -0.36241      1.99895     4.34844    0.01502     6.36241
      C    4    0.30384      1.99875     3.67460    0.02282     5.69616
      O    5   -0.49590      1.99970     6.48461    0.01159     8.49590
      C    6    0.29771      1.99875     3.68064    0.02291     5.70229
      C    7   -0.42952      1.99895     4.41163    0.01894     6.42952
      C    8    0.29771      1.99875     3.68063    0.02291     5.70229
      O    9   -0.49591      1.99970     6.48462    0.01159     8.49591
      C   10    0.30383      1.99875     3.67460    0.02282     5.69617
      C   11   -0.26504      1.99900     4.25301    0.01304     6.26504
      C   12   -0.26268      1.99914     4.24762    0.01592     6.26268
      C   13   -0.27944      1.99904     4.26667    0.01373     6.27944
      C   14    0.18910      1.99900     3.79416    0.01773     5.81090
      N   15   -0.79483      1.99950     5.78424    0.01110     7.79483
      C   16   -0.36241      1.99895     4.34844    0.01502     6.36241
      C   17   -0.30923      1.99901     4.29677    0.01345     6.30923
      C   18   -0.32623      1.99914     4.30892    0.01817     6.32623
      C   19   -0.30923      1.99901     4.29676    0.01345     6.30923
      C   20   -0.26504      1.99900     4.25300    0.01304     6.26504
      C   21   -0.26268      1.99914     4.24762    0.01592     6.26268
      C   22   -0.27944      1.99904     4.26666    0.01373     6.27944
      H   23    0.42475      0.00000     0.57273    0.00252     0.57525
      H   24    0.42476      0.00000     0.57291    0.00233     0.57524
      H   25    0.25472      0.00000     0.74347    0.00181     0.74528
      H   26    0.24850      0.00000     0.74953    0.00196     0.75150
      H   27    0.26062      0.00000     0.73800    0.00138     0.73938
      H   28    0.25148      0.00000     0.74714    0.00137     0.74852
      H   29    0.24857      0.00000     0.74991    0.00152     0.75143
      H   30    0.42476      0.00000     0.57291    0.00233     0.57524
      H   31    0.42475      0.00000     0.57273    0.00252     0.57525
      H   32    0.25472      0.00000     0.74347    0.00181     0.74528
      H   33    0.24856      0.00000     0.75003    0.00142     0.75144
      H   34    0.23808      0.00000     0.76060    0.00132     0.76192
      H   35    0.24856      0.00000     0.75003    0.00142     0.75144
      H   36    0.26062      0.00000     0.73800    0.00138     0.73938
      H   37    0.25148      0.00000     0.74714    0.00137     0.74852
      H   38    0.24857      0.00000     0.74991    0.00152     0.75143
 =======================================================================
   * Total *   -0.00000     43.97976   109.64054    0.37970   154.00000

 Normal termination of Gaussian 16 at Wed Jul 17 16:40:22 2024.
