 Gaussian 16, Revision A.03,

 -------------------------------------------------------
 # opt=CalcFc B3LYP/6-31G** SCRF=(Solvent=water) scf=xqc
 -------------------------------------------------------

 ----------------------------------
 DKKYOQYISDAQER-UHFFFAOYSA-N_conf_2
 ----------------------------------
 Symbolic Z-matrix:
 Charge =  0 Multiplicity = 1

 SCF Done:  E(RB3LYP) =  -955.525881637     A.U. after   12 cycles
 SCF Done:  E(RB3LYP) =  -955.530769785     A.U. after   13 cycles
 SCF Done:  E(RB3LYP) =  -955.531076282     A.U. after   13 cycles
 SCF Done:  E(RB3LYP) =  -955.530985314     A.U. after   13 cycles
 SCF Done:  E(RB3LYP) =  -955.531221286     A.U. after   10 cycles
 SCF Done:  E(RB3LYP) =  -955.531228585     A.U. after   10 cycles
 SCF Done:  E(RB3LYP) =  -955.531232090     A.U. after    9 cycles
 SCF Done:  E(RB3LYP) =  -955.531236883     A.U. after    9 cycles
 SCF Done:  E(RB3LYP) =  -955.531236817     A.U. after    7 cycles
 SCF Done:  E(RB3LYP) =  -955.531236868     A.U. after    6 cycles
 Optimization completed.
    -- Stationary point found.
 Normal termination of Gaussian 16 at Wed Jul 17 15:44:03 2024.

 ----------------------------------------------------------------------
 # freq B3LYP/6-31G** SCRF=(Solvent=water) volume NMR pop=NPA density=c
 urrent Geom=AllCheck Guess=Read
 ----------------------------------------------------------------------

 Structure from the checkpoint file:  "DKKYOQYISDAQER-UHFFFAOYSA-N_conf_2_1.chk"
 ----------------------------------
 DKKYOQYISDAQER-UHFFFAOYSA-N_conf_2
 ----------------------------------
 Charge =  0 Multiplicity = 1

 SCF Done:  E(RB3LYP) =  -955.531236868     A.U. after    1 cycles

      1  N    Isotropic =   198.3437   Anisotropy =    74.2543

      2  C    Isotropic =    47.8394   Anisotropy =   160.0579

      3  C    Isotropic =    90.6012   Anisotropy =   105.9908

      4  C    Isotropic =    39.5080   Anisotropy =   112.7738

      5  O    Isotropic =   175.1365   Anisotropy =    83.3749

      6  C    Isotropic =    37.4561   Anisotropy =   118.1585

      7  C    Isotropic =    87.0584   Anisotropy =   112.6762

      8  C    Isotropic =    37.4179   Anisotropy =   118.2170

      9  O    Isotropic =   175.2299   Anisotropy =    82.8445

     10  C    Isotropic =    39.4621   Anisotropy =   112.7291

     11  C    Isotropic =    89.0922   Anisotropy =   134.4627

     12  C    Isotropic =    66.4088   Anisotropy =   166.8294

     13  C    Isotropic =    87.0032   Anisotropy =   126.9370

     14  C    Isotropic =    47.7886   Anisotropy =   160.0485

     15  N    Isotropic =   198.3040   Anisotropy =    73.3487

     16  C    Isotropic =    90.5512   Anisotropy =   106.5173

     17  C    Isotropic =    86.4160   Anisotropy =   142.5478

     18  C    Isotropic =    66.4271   Anisotropy =   168.7554

     19  C    Isotropic =    86.4049   Anisotropy =   142.5370

     20  C    Isotropic =    89.2446   Anisotropy =   134.4673

     21  C    Isotropic =    66.4264   Anisotropy =   166.8071

     22  C    Isotropic =    87.0025   Anisotropy =   126.7756

     23  H    Isotropic =    28.4091   Anisotropy =    11.5243

     24  H    Isotropic =    28.4082   Anisotropy =    12.5699

     25  H    Isotropic =    25.3533   Anisotropy =     7.4890

     26  H    Isotropic =    24.9287   Anisotropy =     7.4067

     27  H    Isotropic =    25.4485   Anisotropy =     8.2590

     28  H    Isotropic =    24.5525   Anisotropy =     4.5086

     29  H    Isotropic =    25.3181   Anisotropy =     4.5876

     30  H    Isotropic =    28.4375   Anisotropy =    11.7179

     31  H    Isotropic =    28.4064   Anisotropy =    12.6100

     32  H    Isotropic =    25.3510   Anisotropy =     7.5037

     33  H    Isotropic =    25.1650   Anisotropy =     9.1884

     34  H    Isotropic =    24.4873   Anisotropy =     5.0924

     35  H    Isotropic =    25.2009   Anisotropy =     9.1239

     36  H    Isotropic =    25.4490   Anisotropy =     8.2877

     37  H    Isotropic =    24.5502   Anisotropy =     4.5125

     38  H    Isotropic =    25.3178   Anisotropy =     4.5813

  Exact polarizability: 427.566  28.812 230.645  -0.545  -0.042 174.378
 Approx polarizability: 456.025  38.340 289.120   1.448   1.470 227.596

                      1                      2                      3
                      A                      A                      A
 Frequencies --     10.6351                14.4514                27.6778
 Red. masses --      5.7413                 5.9238                 4.8493
 Frc consts  --      0.0004                 0.0007                 0.0022
 IR Inten    --      1.7914                 1.4224                 0.9133

                      4                      5                      6
                      A                      A                      A
 Frequencies --     30.9716                60.0412               101.5728
 Red. masses --      5.1928                 5.0814                 4.5051
 Frc consts  --      0.0029                 0.0108                 0.0274
 IR Inten    --      1.0789                 0.5433                 0.8962

                      7                      8                      9
                      A                      A                      A
 Frequencies --    161.5759               199.1838               210.5619
 Red. masses --      6.4627                 5.4374                 4.7218
 Frc consts  --      0.0994                 0.1271                 0.1233
 IR Inten    --      0.1790                 6.0705                 8.0164

                     10                     11                     12
                      A                      A                      A
 Frequencies --    222.4744               223.8473               242.8437
 Red. masses --      4.0484                 3.8831                 4.0229
 Frc consts  --      0.1181                 0.1146                 0.1398
 IR Inten    --      6.0339                 8.4436                 1.2451

                     13                     14                     15
                      A                      A                      A
 Frequencies --    247.9638               300.0415               321.1940
 Red. masses --      4.1469                 4.6081                 2.4504
 Frc consts  --      0.1502                 0.2444                 0.1489
 IR Inten    --      1.5831                16.4850                 5.7968

                     16                     17                     18
                      A                      A                      A
 Frequencies --    331.7522               333.8046               400.0214
 Red. masses --      1.0754                 1.4235                 4.9292
 Frc consts  --      0.0697                 0.0935                 0.4647
 IR Inten    --     47.7643                 8.1652                 7.8903

                     19                     20                     21
                      A                      A                      A
 Frequencies --    438.9975               452.1990               459.5586
 Red. masses --      3.7021                 3.5158                 2.9811
 Frc consts  --      0.4204                 0.4236                 0.3709
 IR Inten    --      5.1224                 3.7320                20.9555

                     22                     23                     24
                      A                      A                      A
 Frequencies --    460.2182               464.7002               530.5787
 Red. masses --      3.0269                 3.3022                 5.8468
 Frc consts  --      0.3777                 0.4201                 0.9698
 IR Inten    --     15.2043                 4.5590                95.3817

                     25                     26                     27
                      A                      A                      A
 Frequencies --    530.8854               543.0346               561.2566
 Red. masses --      5.9920                 4.0486                 2.4396
 Frc consts  --      0.9950                 0.7034                 0.4528
 IR Inten    --      4.0765                66.0844                38.7228

                     28                     29                     30
                      A                      A                      A
 Frequencies --    571.9578               582.0910               599.3212
 Red. masses --      2.6343                 2.0896                 4.3670
 Frc consts  --      0.5077                 0.4172                 0.9242
 IR Inten    --    273.9316               500.3978                23.2313

                     31                     32                     33
                      A                      A                      A
 Frequencies --    604.5839               623.8697               670.1221
 Red. masses --      3.5505                 4.0156                 4.4809
 Frc consts  --      0.7646                 0.9208                 1.1856
 IR Inten    --     13.1511               176.0211                17.9933

                     34                     35                     36
                      A                      A                      A
 Frequencies --    674.3472               693.2174               700.0791
 Red. masses --      4.5391                 2.6103                 2.5134
 Frc consts  --      1.2162                 0.7391                 0.7258
 IR Inten    --     34.9961                17.8257                13.6747

                     37                     38                     39
                      A                      A                      A
 Frequencies --    707.5244               751.7013               758.9328
 Red. masses --      2.4175                 3.0311                 3.1229
 Frc consts  --      0.7130                 1.0091                 1.0598
 IR Inten    --      1.3772                18.4801                14.4652

                     40                     41                     42
                      A                      A                      A
 Frequencies --    772.7531               778.6891               787.9385
 Red. masses --      1.4033                 2.0876                 1.6800
 Frc consts  --      0.4937                 0.7458                 0.6145
 IR Inten    --     65.7830                59.0549                11.2582

                     43                     44                     45
                      A                      A                      A
 Frequencies --    790.5412               851.5974               852.8608
 Red. masses --      3.7804                 1.5707                 1.5653
 Frc consts  --      1.3920                 0.6711                 0.6708
 IR Inten    --     22.7452                33.4253                58.0845

                     46                     47                     48
                      A                      A                      A
 Frequencies --    861.5618               865.4672               870.3177
 Red. masses --      1.4178                 1.4419                 1.5719
 Frc consts  --      0.6201                 0.6363                 0.7015
 IR Inten    --     24.2452                12.9511                10.0681

                     49                     50                     51
                      A                      A                      A
 Frequencies --    880.8887               931.9410               966.9843
 Red. masses --      1.4575                 3.8279                 1.2571
 Frc consts  --      0.6663                 1.9588                 0.6926
 IR Inten    --      3.2242                 1.4227                 0.9441

                     52                     53                     54
                      A                      A                      A
 Frequencies --    967.2531               973.5197               980.7213
 Red. masses --      1.2561                 1.2628                 2.8468
 Frc consts  --      0.6924                 0.7051                 1.6133
 IR Inten    --      0.3345                 1.4757                 0.0826

                     55                     56                     57
                      A                      A                      A
 Frequencies --   1008.0895              1009.4924              1011.9184
 Red. masses --      4.0477                 5.8909                 2.7198
 Frc consts  --      2.4236                 3.5370                 1.6409
 IR Inten    --     22.3109                 0.8831               251.7716

                     58                     59                     60
                      A                      A                      A
 Frequencies --   1013.4218              1092.6670              1092.8993
 Red. masses --      5.9677                 1.5788                 1.5816
 Frc consts  --      3.6111                 1.1106                 1.1130
 IR Inten    --      0.6236                 5.0718                 3.2204

                     61                     62                     63
                      A                      A                      A
 Frequencies --   1110.7641              1134.1978              1135.1314
 Red. masses --      1.5297                 1.3252                 1.2692
 Frc consts  --      1.1120                 1.0044                 0.9635
 IR Inten    --     11.9959                 7.0438                 1.5368

                     64                     65                     66
                      A                      A                      A
 Frequencies --   1142.6519              1176.9808              1179.8671
 Red. masses --      1.5060                 1.4358                 1.2291
 Frc consts  --      1.1585                 1.1719                 1.0081
 IR Inten    --     59.3666                 1.0328               479.9109

                     67                     68                     69
                      A                      A                      A
 Frequencies --   1190.5122              1197.3771              1211.4900
 Red. masses --      1.1537                 1.5379                 2.3253
 Frc consts  --      0.9634                 1.2991                 2.0108
 IR Inten    --     11.9916                 0.1204              1144.9586

                     70                     71                     72
                      A                      A                      A
 Frequencies --   1296.6065              1299.8596              1316.9372
 Red. masses --      5.8612                 1.6590                 1.9844
 Frc consts  --      5.8056                 1.6515                 2.0277
 IR Inten    --     76.8312               187.9720                 0.3666

                     73                     74                     75
                      A                      A                      A
 Frequencies --   1318.6425              1345.2598              1347.8361
 Red. masses --      2.0642                 2.1771                 2.2611
 Frc consts  --      2.1147                 2.3214                 2.4202
 IR Inten    --     96.0449                31.9903                 0.0878

                     76                     77                     78
                      A                      A                      A
 Frequencies --   1361.7282              1367.7426              1370.4381
 Red. masses --      3.7985                 4.9851                 5.9643
 Frc consts  --      4.1500                 5.4946                 6.5998
 IR Inten    --    103.5205                 2.3192                14.8888

                     79                     80                     81
                      A                      A                      A
 Frequencies --   1483.1807              1504.8820              1510.0356
 Red. masses --      3.2944                 3.0090                 3.1179
 Frc consts  --      4.2698                 4.0150                 4.1888
 IR Inten    --      8.9950               149.2478                 5.0055

                     82                     83                     84
                      A                      A                      A
 Frequencies --   1517.8898              1532.1885              1533.0209
 Red. masses --      2.5080                 2.6222                 2.6545
 Frc consts  --      3.4045                 3.6270                 3.6756
 IR Inten    --    549.8887                 0.2855               164.8099

                     85                     86                     87
                      A                      A                      A
 Frequencies --   1626.6363              1628.5752              1638.4372
 Red. masses --      6.1366                 6.1182                 6.6800
 Frc consts  --      9.5666                 9.5607                10.5654
 IR Inten    --     12.5287               382.5906                86.9204

                     88                     89                     90
                      A                      A                      A
 Frequencies --   1645.7622              1655.1249              1659.9413
 Red. masses --      4.3317                 1.7163                 1.4095
 Frc consts  --      6.9126                 2.7702                 2.2882
 IR Inten    --    560.6354                 3.9555               240.4949

                     91                     92                     93
                      A                      A                      A
 Frequencies --   1667.4585              1672.0175              3182.3357
 Red. masses --      2.2112                 3.9926                 1.0869
 Frc consts  --      3.6223                 6.5764                 6.4855
 IR Inten    --     13.3280               304.0380                12.6989

                     94                     95                     96
                      A                      A                      A
 Frequencies --   3182.7600              3195.4109              3197.1430
 Red. masses --      1.0869                 1.0888                 1.0935
 Frc consts  --      6.4869                 6.5502                 6.5857
 IR Inten    --     12.6443                14.9456                40.2926

                     97                     98                     99
                      A                      A                      A
 Frequencies --   3197.5208              3200.7792              3201.5719
 Red. masses --      1.0936                 1.0916                 1.0916
 Frc consts  --      6.5875                 6.5893                 6.5923
 IR Inten    --     35.6471                 5.4474                 5.5394

                    100                    101                    102
                      A                      A                      A
 Frequencies --   3222.9380              3223.1415              3224.2513
 Red. masses --      1.0939                 1.0939                 1.0922
 Frc consts  --      6.6949                 6.6954                 6.6898
 IR Inten    --      6.4252                 5.6796                 1.6169

                    103                    104                    105
                      A                      A                      A
 Frequencies --   3226.9686              3230.2965              3565.7827
 Red. masses --      1.0914                 1.0947                 1.0484
 Frc consts  --      6.6960                 6.7302                 7.8537
 IR Inten    --      8.5872                 1.8822                40.6521

                    106                    107                    108
                      A                      A                      A
 Frequencies --   3566.1926              3669.2718              3669.5531
 Red. masses --      1.0484                 1.0988                 1.0987
 Frc consts  --      7.8559                 8.7160                 8.7170
 IR Inten    --     38.3079                26.9016                26.1601

 - Thermochemistry -
 -------------------
 Temperature   298.150 Kelvin.  Pressure   1.00000 Atm.
 Atom     1 has atomic number  7 and mass  14.00307

 Molecular mass:   292.12118 amu.
 Principal axes and moments of inertia in atomic units:
                           1         2         3
     Eigenvalues --  1514.61756********************
           X            1.00000   0.00118  -0.00141
           Y           -0.00120   0.99987  -0.01584
           Z            0.00139   0.01584   0.99987
 This molecule is an asymmetric top.
 Rotational symmetry number  1.
 Warning -- assumption of classical behavior for rotation
           may cause significant error
 Rotational temperatures (Kelvin)      0.05719     0.00422     0.00415
 Rotational constants (GHZ):           1.19155     0.08783     0.08653
 Zero-point vibrational energy     795016.7 (Joules/Mol)
                                  190.01354 (Kcal/Mol)
 Warning -- explicit consideration of  31 degrees of freedom as
           vibrations may cause significant error
 Vibrational temperatures:     15.30    20.79    39.82    44.56    86.39
          (Kelvin)            146.14   232.47   286.58   302.95   320.09
                              322.07   349.40   356.76   431.69   462.13
                              477.32   480.27   575.54   631.62   650.61
                              661.20   662.15   668.60   763.38   763.83
                              781.31   807.52   822.92   837.50   862.29
                              869.86   897.61   964.16   970.24   997.39
                             1007.26  1017.97  1081.53  1091.94  1111.82
                             1120.36  1133.67  1137.41  1225.26  1227.08
                             1239.60  1245.21  1252.19  1267.40  1340.86
                             1391.27  1391.66  1400.68  1411.04  1450.42
                             1452.43  1455.92  1458.09  1572.10  1572.44
                             1598.14  1631.86  1633.20  1644.02  1693.41
                             1697.57  1712.88  1722.76  1743.06  1865.53
                             1870.21  1894.78  1897.23  1935.53  1939.24
                             1959.22  1967.88  1971.75  2133.97  2165.19
                             2172.60  2183.90  2204.48  2205.68  2340.37
                             2343.16  2357.35  2367.88  2381.36  2388.29
                             2399.10  2405.66  4578.67  4579.28  4597.48
                             4599.98  4600.52  4605.21  4606.35  4637.09
                             4637.38  4638.98  4642.89  4647.68  5130.37
                             5130.96  5279.26  5279.67

 Zero-point correction=                           0.302806 (Hartree/Particle)
 Thermal correction to Energy=                    0.321509
 Thermal correction to Enthalpy=                  0.322454
 Thermal correction to Gibbs Free Energy=         0.252605
 Sum of electronic and zero-point Energies=           -955.228431
 Sum of electronic and thermal Energies=              -955.209727
 Sum of electronic and thermal Enthalpies=            -955.208783
 Sum of electronic and thermal Free Energies=         -955.278631

                     E (Thermal)             CV                S
                      KCal/Mol        Cal/Mol-Kelvin    Cal/Mol-Kelvin
 Total                  201.750             75.016            147.008
 Electronic               0.000              0.000              0.000
 Translational            0.889              2.981             42.913
 Rotational               0.889              2.981             34.828
 Vibrational            199.973             69.055             69.267
 Vibration     1          0.593              1.987              7.889
 Vibration     2          0.593              1.986              7.280
 Vibration     3          0.593              1.984              5.989
 Vibration     4          0.594              1.984              5.766
 Vibration     5          0.597              1.973              4.456
 Vibration     6          0.604              1.948              3.424
 Vibration     7          0.622              1.890              2.531
 Vibration     8          0.637              1.841              2.141
 Vibration     9          0.643              1.825              2.039
 Vibration    10          0.648              1.807              1.939
 Vibration    11          0.649              1.805              1.928
 Vibration    12          0.659              1.775              1.782
 Vibration    13          0.662              1.766              1.745
 Vibration    14          0.693              1.674              1.417
 Vibration    15          0.707              1.633              1.304
 Vibration    16          0.714              1.612              1.252
 Vibration    17          0.715              1.608              1.242
 Vibration    18          0.766              1.470              0.963
 Vibration    19          0.799              1.385              0.830
 Vibration    20          0.811              1.356              0.789
 Vibration    21          0.817              1.340              0.767
 Vibration    22          0.818              1.338              0.765
 Vibration    23          0.822              1.328              0.753
 Vibration    24          0.886              1.182              0.586
 Vibration    25          0.886              1.182              0.585
 Vibration    26          0.898              1.155              0.559
 Vibration    27          0.917              1.115              0.521
 Vibration    28          0.928              1.092              0.500
 Vibration    29          0.939              1.070              0.482
 Vibration    30          0.957              1.033              0.451
 Vibration    31          0.963              1.022              0.442

 Optimization completed.
    -- Stationary point found.
 Normal termination of Gaussian 16 at Wed Jul 17 16:13:37 2024.
 Gaussian 16:  ES64L-G16RevA.03 25-Dec-2016

 ----------------------------------------------------------------------
 # TD(NStates=10, Root=1) B3LYP/6-31G** SCRF=(Solvent=water) volume pop
 =NPA density=current Geom=AllCheck Guess=Read
 ----------------------------------------------------------------------

 Structure from the checkpoint file:  "DKKYOQYISDAQER-UHFFFAOYSA-N_conf_2_2.chk"
 ----------------------------------
 DKKYOQYISDAQER-UHFFFAOYSA-N_conf_2
 ----------------------------------
 Charge =  0 Multiplicity = 1

                         Standard orientation:
 ---------------------------------------------------------------------
 Center     Atomic      Atomic             Coordinates (Angstroms)
 Number     Number       Type             X           Y           Z
 ---------------------------------------------------------------------
      1          7           0       -6.996024   -1.314350   -0.471085
      2          6           0       -5.931036   -0.446287   -0.245885
      3          6           0       -4.620192   -0.821647   -0.591208
      4          6           0       -3.572052    0.079579   -0.426904
      5          8           0       -2.326241   -0.337069   -0.878462
      6          6           0       -1.197544   -0.138039   -0.110262
      7          6           0       -0.000403    0.001640   -0.813977
      8          6           0        1.196706    0.132966   -0.108416
      9          8           0        2.325455    0.340055   -0.874174
     10          6           0        3.571934   -0.075116   -0.422427
     11          6           0        3.785219   -1.367296    0.065431
     12          6           0        5.089040   -1.728193    0.411263
     13          6           0        6.152077   -0.839254    0.269425
     14          6           0        5.928171    0.458389   -0.229630
     15          7           0        6.969538    1.378282   -0.318357
     16          6           0        4.616177    0.833016   -0.571788
     17          6           0        1.208998    0.133835    1.290595
     18          6           0       -0.000722   -0.014761    1.969874
     19          6           0       -1.210248   -0.155424    1.288649
     20          6           0       -3.780428    1.364923    0.080682
     21          6           0       -5.082765    1.725148    0.433005
     22          6           0       -6.149403    0.843070    0.276669
     23          1           0       -6.754291   -2.296447   -0.496156
     24          1           0       -7.811916   -1.148591    0.103746
     25          1           0       -4.411760   -1.808520   -0.992524
     26          1           0       -0.000312    0.007980   -1.897874
     27          1           0        2.961515   -2.064750    0.162330
     28          1           0        5.281014   -2.728449    0.788776
     29          1           0        7.159160   -1.142463    0.540991
     30          1           0        6.831124    2.122214   -0.989958
     31          1           0        7.892767    0.972633   -0.400164
     32          1           0        4.403879    1.825297   -0.957406
     33          1           0        2.140091    0.248718    1.832077
     34          1           0       -0.000802   -0.021122    3.055684
     35          1           0       -2.141500   -0.276807    1.828461
     36          1           0       -2.953526    2.056330    0.192319
     37          1           0       -5.269610    2.717604    0.833014
     38          1           0       -7.155323    1.145680    0.553271
 ---------------------------------------------------------------------

 SCF Done:  E(RB3LYP) =  -955.531236868     A.U. after    1 cycles

 Excitation energies and oscillator strengths:

 Excited State   1:      Singlet-A      4.5609 eV  271.84 nm  f=0.4341  <S**2>=0.000
      75 -> 78        -0.10971
      76 -> 79         0.17809
      76 -> 80        -0.12598
      77 -> 78         0.64277
 This state for optimization and/or second-order correction.
 Total Energy, E(TD-HF/TD-DFT) =  -955.363627516
 Copying the excited state density for this state as the 1-particle RhoCI density.

 Excited State   2:      Singlet-A      4.6689 eV  265.55 nm  f=0.0012  <S**2>=0.000
      76 -> 78         0.48504
      76 -> 81        -0.13361
      77 -> 79         0.42106
      77 -> 80        -0.18226

 Excited State   3:      Singlet-A      4.8441 eV  255.95 nm  f=0.0407  <S**2>=0.000
      74 -> 83         0.10246
      75 -> 78         0.13599
      76 -> 78         0.10553
      76 -> 79         0.52983
      77 -> 78        -0.16935
      77 -> 79        -0.13913
      77 -> 81        -0.29278

 Excited State   4:      Singlet-A      4.8535 eV  255.45 nm  f=0.0064  <S**2>=0.000
      76 -> 78        -0.43190
      76 -> 79         0.14479
      76 -> 81        -0.10376
      77 -> 79         0.50340

 Excited State   5:      Singlet-A      5.0288 eV  246.55 nm  f=0.0120  <S**2>=0.000
      74 -> 82        -0.10823
      75 -> 79        -0.14737
      76 -> 78         0.22656
      76 -> 81         0.31762
      77 -> 79         0.14019
      77 -> 80         0.50989

 Excited State   6:      Singlet-A      5.0879 eV  243.69 nm  f=0.0085  <S**2>=0.000
      72 -> 79        -0.10746
      75 -> 78        -0.21418
      76 -> 79         0.35999
      76 -> 80         0.38263
      76 -> 83         0.12652
      77 -> 81         0.33448

 Excited State   7:      Singlet-A      5.1359 eV  241.41 nm  f=0.0088  <S**2>=0.000
      74 -> 79         0.15367
      75 -> 78         0.57081
      75 -> 81         0.10559
      76 -> 80         0.14839
      77 -> 78         0.19115
      77 -> 81         0.21068

 Excited State   8:      Singlet-A      5.2763 eV  234.98 nm  f=0.1656  <S**2>=0.000
      74 -> 79        -0.31915
      75 -> 78         0.12662
      75 -> 81        -0.21610
      76 -> 79         0.13174
      76 -> 80        -0.31798
      77 -> 78        -0.11535
      77 -> 81         0.39305
      77 -> 82         0.16357

 Excited State   9:      Singlet-A      5.3289 eV  232.66 nm  f=0.0157  <S**2>=0.000
      74 -> 78        -0.15795
      75 -> 79         0.52315
      76 -> 81        -0.23724
      77 -> 80         0.31631
      77 -> 83         0.14569

 Excited State  10:      Singlet-A      5.3814 eV  230.40 nm  f=0.0011  <S**2>=0.000
      74 -> 78        -0.22445
      75 -> 79         0.27528
      76 -> 81         0.50853
      77 -> 79         0.13235
      77 -> 80        -0.24020
      77 -> 83         0.13309

 The electronic state is 1-A.
 Alpha  occ. eigenvalues --  -19.19099 -19.19095 -14.33958 -14.33954 -10.25845
 Alpha  occ. eigenvalues --  -10.25841 -10.25165 -10.25162 -10.23404 -10.23401
 Alpha  occ. eigenvalues --  -10.19929 -10.19359 -10.19355 -10.19050 -10.18995
 Alpha  occ. eigenvalues --  -10.18992 -10.18443 -10.18439 -10.18275 -10.18269
 Alpha  occ. eigenvalues --  -10.18251 -10.18245  -1.07943  -1.07797  -0.91815
 Alpha  occ. eigenvalues --   -0.91808  -0.86206  -0.83911  -0.83345  -0.76629
 Alpha  occ. eigenvalues --   -0.76585  -0.73682  -0.73198  -0.72392  -0.72251
 Alpha  occ. eigenvalues --   -0.64790  -0.62709  -0.61545  -0.61194  -0.60631
 Alpha  occ. eigenvalues --   -0.57534  -0.55479  -0.51686  -0.51255  -0.51162
 Alpha  occ. eigenvalues --   -0.50846  -0.49008  -0.48972  -0.48577  -0.46882
 Alpha  occ. eigenvalues --   -0.46519  -0.45106  -0.44808  -0.43718  -0.42525
 Alpha  occ. eigenvalues --   -0.42483  -0.41804  -0.40390  -0.39433  -0.38894
 Alpha  occ. eigenvalues --   -0.38239  -0.37843  -0.37280  -0.36865  -0.36696
 Alpha  occ. eigenvalues --   -0.35344  -0.35081  -0.34557  -0.32526  -0.30660
 Alpha  occ. eigenvalues --   -0.30045  -0.25316  -0.25170  -0.23325  -0.22505
 Alpha  occ. eigenvalues --   -0.20674  -0.20306
 Alpha virt. eigenvalues --   -0.01142  -0.00635   0.00372   0.00710   0.01274
 Alpha virt. eigenvalues --    0.01987   0.09058   0.09189   0.09515   0.10587
 Alpha virt. eigenvalues --    0.10816   0.13020   0.13088   0.15053   0.15175

 Mulliken charges:
               1
     1  N   -0.637358
     2  C    0.262015
     3  C   -0.173665
     4  C    0.303798
     5  O   -0.571914
     6  C    0.299837
     7  C   -0.230811
     8  C    0.301499
     9  O   -0.573532
    10  C    0.304007
    11  C   -0.098928
    12  C   -0.134014
    13  C   -0.115893
    14  C    0.261379
    15  N   -0.641548
    16  C   -0.172725
    17  C   -0.123435
    18  C   -0.178427
    19  C   -0.122246
    20  C   -0.096157
    21  C   -0.135315
    22  C   -0.114487
    23  H    0.296119
    24  H    0.296194
    25  H    0.101288
    26  H    0.077156
    27  H    0.116721
    28  H    0.105599
    29  H    0.104350
    30  H    0.294322
    31  H    0.294620
    32  H    0.100685
    33  H    0.095210
    34  H    0.079844
    35  H    0.095457
    36  H    0.118611
    37  H    0.106186
    38  H    0.105560
 Sum of Mulliken charges =  -0.00000

 Dipole moment (field-independent basis, Debye):
    X=             -0.0668    Y=             -0.8373    Z=              0.7686  Tot=              1.1385
 Quadrupole moment (field-independent basis, Debye-Ang):
   XX=            -23.7241   YY=           -114.4156   ZZ=           -130.7162
   XY=             17.1745   XZ=            -16.6448   YZ=             -3.3058

 Summary of Natural Population Analysis:

                                       Natural Population
                Natural  -----------------------------------------------
    Atom  No    Charge         Core      Valence    Rydberg      Total
 -----------------------------------------------------------------------
      N    1   -0.79133      1.99949     5.78078    0.01106     7.79133
      C    2    0.18954      1.99900     3.79371    0.01774     5.81046
      C    3   -0.36349      1.99895     4.34939    0.01515     6.36349
      C    4    0.30287      1.99875     3.67551    0.02287     5.69713
      O    5   -0.49512      1.99970     6.48383    0.01159     8.49512
      C    6    0.29703      1.99875     3.68131    0.02291     5.70297
      C    7   -0.42911      1.99895     4.41124    0.01892     6.42911
      C    8    0.29937      1.99875     3.67899    0.02290     5.70063
      O    9   -0.49769      1.99970     6.48641    0.01158     8.49769
      C   10    0.30389      1.99875     3.67454    0.02283     5.69611
      C   11   -0.26819      1.99900     4.25614    0.01306     6.26819
      C   12   -0.26106      1.99914     4.24608    0.01584     6.26106
      C   13   -0.28096      1.99904     4.26825    0.01367     6.28096
      C   14    0.18894      1.99900     3.79436    0.01770     5.81106
      N   15   -0.79893      1.99949     5.78831    0.01113     7.79893
      C   16   -0.36112      1.99894     4.34722    0.01495     6.36112
      C   17   -0.31028      1.99901     4.29781    0.01345     6.31028
      C   18   -0.32540      1.99914     4.30811    0.01815     6.32540
      C   19   -0.30835      1.99901     4.29592    0.01341     6.30835
      C   20   -0.26138      1.99900     4.24932    0.01306     6.26138
      C   21   -0.26476      1.99914     4.24960    0.01602     6.26476
      C   22   -0.27816      1.99904     4.26531    0.01381     6.27816
      H   23    0.42519      0.00000     0.57228    0.00252     0.57481
      H   24    0.42520      0.00000     0.57247    0.00233     0.57480
      H   25    0.25484      0.00000     0.74336    0.00181     0.74516
      H   26    0.24856      0.00000     0.74947    0.00197     0.75144
      H   27    0.26020      0.00000     0.73842    0.00138     0.73980
      H   28    0.25121      0.00000     0.74742    0.00137     0.74879
      H   29    0.24834      0.00000     0.75015    0.00151     0.75166
      H   30    0.42427      0.00000     0.57322    0.00251     0.57573
      H   31    0.42456      0.00000     0.57314    0.00230     0.57544
      H   32    0.25457      0.00000     0.74361    0.00182     0.74543
      H   33    0.24867      0.00000     0.74991    0.00142     0.75133
      H   34    0.23821      0.00000     0.76047    0.00132     0.76179
      H   35    0.24869      0.00000     0.74990    0.00142     0.75131
      H   36    0.26084      0.00000     0.73779    0.00137     0.73916
      H   37    0.25160      0.00000     0.74703    0.00137     0.74840
      H   38    0.24874      0.00000     0.74974    0.00153     0.75126
 =======================================================================
   * Total *   -0.00000     43.97975   109.64049    0.37976   154.00000

 Normal termination of Gaussian 16 at Wed Jul 17 16:40:37 2024.
