 Gaussian 16, Revision A.03,

 -------------------------------------------------------
 # opt=CalcFc B3LYP/6-31G** SCRF=(Solvent=water) scf=xqc
 -------------------------------------------------------

 ----------------------------------
 MBJAPGAZEWPEFB-UHFFFAOYSA-N_conf_1
 ----------------------------------
 Symbolic Z-matrix:
 Charge =  0 Multiplicity = 1

 SCF Done:  E(RB3LYP) =  -1821.64386362     A.U. after   13 cycles
 SCF Done:  E(RB3LYP) =  -1821.65133557     A.U. after   14 cycles
 SCF Done:  E(RB3LYP) =  -1821.63481954     A.U. after   14 cycles
 SCF Done:  E(RB3LYP) =  -1821.65506832     A.U. after   12 cycles
 SCF Done:  E(RB3LYP) =  -1821.65590296     A.U. after   11 cycles
 SCF Done:  E(RB3LYP) =  -1821.65469875     A.U. after   12 cycles
 SCF Done:  E(RB3LYP) =  -1821.65308595     A.U. after   12 cycles
 SCF Done:  E(RB3LYP) =  -1821.65201750     A.U. after   12 cycles
 SCF Done:  E(RB3LYP) =  -1821.65592775     A.U. after    9 cycles
 SCF Done:  E(RB3LYP) =  -1821.63760771     A.U. after   12 cycles
 SCF Done:  E(RB3LYP) =  -1821.65618963     A.U. after   11 cycles
 SCF Done:  E(RB3LYP) =  -1821.65624587     A.U. after   10 cycles
 SCF Done:  E(RB3LYP) =  -1821.65626506     A.U. after    9 cycles
 SCF Done:  E(RB3LYP) =  -1821.65627082     A.U. after    8 cycles
 SCF Done:  E(RB3LYP) =  -1821.65627357     A.U. after    8 cycles
 SCF Done:  E(RB3LYP) =  -1821.65627444     A.U. after    8 cycles
 SCF Done:  E(RB3LYP) =  -1821.65627461     A.U. after    7 cycles
 Optimization completed.
    -- Stationary point found.
 Normal termination of Gaussian 16 at Thu Jul 18 13:25:01 2024.

 ----------------------------------------------------------------------
 # freq B3LYP/6-31G** SCRF=(Solvent=water) volume NMR pop=NPA density=c
 urrent Geom=AllCheck Guess=Read
 ----------------------------------------------------------------------

 Structure from the checkpoint file:  "MBJAPGAZEWPEFB-UHFFFAOYSA-N_conf_1_1.chk"
 ----------------------------------
 MBJAPGAZEWPEFB-UHFFFAOYSA-N_conf_1
 ----------------------------------
 Charge =  0 Multiplicity = 1

 SCF Done:  E(RB3LYP) =  -1821.65627461     A.U. after    1 cycles

      1  N    Isotropic =   196.1625   Anisotropy =    71.6811

      2  C    Isotropic =    49.7895   Anisotropy =   160.7081

      3  C    Isotropic =    77.9172   Anisotropy =   139.3648

      4  C    Isotropic =    59.9354   Anisotropy =   158.2574

      5  C    Isotropic =    68.5658   Anisotropy =   150.8091

      6  C    Isotropic =    71.0409   Anisotropy =   145.4721

      7  C    Isotropic =    60.9648   Anisotropy =   157.6885

      8  C    Isotropic =    79.0890   Anisotropy =   137.7684

      9  C    Isotropic =    48.7951   Anisotropy =   161.9790

     10  N    Isotropic =   195.8746   Anisotropy =    71.8311

     11  C    Isotropic =    83.2259   Anisotropy =   129.6088

     12  C    Isotropic =    52.7781   Anisotropy =   108.5970

     13  S    Isotropic =   222.7172   Anisotropy =   275.1171

     14  O    Isotropic =   111.5148   Anisotropy =    37.4981

     15  O    Isotropic =   122.3339   Anisotropy =   195.7972

     16  O    Isotropic =   139.5555   Anisotropy =    52.2680

     17  C    Isotropic =    55.3698   Anisotropy =    97.1882

     18  S    Isotropic =   215.8622   Anisotropy =   219.3144

     19  O    Isotropic =   122.7130   Anisotropy =    47.3665

     20  O    Isotropic =   128.7280   Anisotropy =   215.6366

     21  O    Isotropic =   131.1527   Anisotropy =    42.8239

     22  C    Isotropic =    83.2563   Anisotropy =   130.0144

     23  H    Isotropic =    28.0827   Anisotropy =    11.9762

     24  H    Isotropic =    28.0587   Anisotropy =    12.7200

     25  H    Isotropic =    24.8642   Anisotropy =     5.3807

     26  H    Isotropic =    24.6264   Anisotropy =     9.0968

     27  H    Isotropic =    24.6189   Anisotropy =     8.6445

     28  H    Isotropic =    24.9043   Anisotropy =     5.4916

     29  H    Isotropic =    28.0602   Anisotropy =    11.9535

     30  H    Isotropic =    28.0853   Anisotropy =    12.6589

     31  H    Isotropic =    24.5907   Anisotropy =     9.5551

     32  H    Isotropic =    22.2432   Anisotropy =    22.6422

     33  H    Isotropic =    26.1261   Anisotropy =    14.5630

     34  H    Isotropic =    24.5946   Anisotropy =     9.5738

  Exact polarizability: 358.490  30.978 219.994  -0.541  -0.879 200.698
 Approx polarizability: 422.723  24.421 262.697  -0.092  -0.135 247.148

                      1                      2                      3
                      A                      A                      A
 Frequencies --     35.7432                44.8655                51.2816
 Red. masses --      9.6368                 6.8905                 6.6624
 Frc consts  --      0.0073                 0.0082                 0.0103
 IR Inten    --      3.0324                 5.1515                 0.8395

                      4                      5                      6
                      A                      A                      A
 Frequencies --     55.6569                73.3810               117.4499
 Red. masses --      8.3154                 5.2999                 4.8051
 Frc consts  --      0.0152                 0.0168                 0.0391
 IR Inten    --      8.6296                 2.2010                 4.3342

                      7                      8                      9
                      A                      A                      A
 Frequencies --    133.0404               149.5770               154.5371
 Red. masses --      7.5285                 7.2803                 7.2866
 Frc consts  --      0.0785                 0.0960                 0.1025
 IR Inten    --      0.9634                 5.7103                12.4289

                     10                     11                     12
                      A                      A                      A
 Frequencies --    181.2546               193.4610               226.3794
 Red. masses --      5.2551                 6.0949                 9.9403
 Frc consts  --      0.1017                 0.1344                 0.3001
 IR Inten    --      1.5892                14.4907                 7.8572

                     13                     14                     15
                      A                      A                      A
 Frequencies --    240.6269               267.9475               284.1916
 Red. masses --      1.4316                 6.3093                 5.4149
 Frc consts  --      0.0488                 0.2669                 0.2577
 IR Inten    --    117.5529                 7.7855                19.1119

                     16                     17                     18
                      A                      A                      A
 Frequencies --    294.1483               313.1432               321.4379
 Red. masses --      4.8918                 7.3311                 6.6358
 Frc consts  --      0.2494                 0.4235                 0.4040
 IR Inten    --     47.4268                 3.9974                 8.9174

                     19                     20                     21
                      A                      A                      A
 Frequencies --    338.8032               351.3546               353.8016
 Red. masses --      4.3752                 1.0801                 1.0766
 Frc consts  --      0.2959                 0.0786                 0.0794
 IR Inten    --     13.9552                24.3899                27.4413

                     22                     23                     24
                      A                      A                      A
 Frequencies --    382.7159               390.3703               425.2226
 Red. masses --      3.8470                 4.3952                 4.0075
 Frc consts  --      0.3320                 0.3946                 0.4269
 IR Inten    --      9.8727                 0.0638                27.6484

                     25                     26                     27
                      A                      A                      A
 Frequencies --    426.7803               434.1516               449.3694
 Red. masses --      4.2121                 6.3950                 7.0801
 Frc consts  --      0.4520                 0.7102                 0.8424
 IR Inten    --     19.6618                13.1393                11.7706

                     28                     29                     30
                      A                      A                      A
 Frequencies --    477.5071               485.5536               506.5156
 Red. masses --      3.3110                 4.5794                 1.7726
 Frc consts  --      0.4448                 0.6361                 0.2679
 IR Inten    --    315.0611                80.2912               614.9551

                     31                     32                     33
                      A                      A                      A
 Frequencies --    508.8491               530.8895               540.1501
 Red. masses --      1.5059                 4.8150                 4.8739
 Frc consts  --      0.2297                 0.7996                 0.8378
 IR Inten    --    404.7200                36.6810                54.9629

                     34                     35                     36
                      A                      A                      A
 Frequencies --    542.3962               573.4851               584.7314
 Red. masses --      5.7482                 4.9813                 9.4214
 Frc consts  --      0.9964                 0.9652                 1.8979
 IR Inten    --     69.7006                47.5248                85.4008

                     37                     38                     39
                      A                      A                      A
 Frequencies --    612.0758               617.0939               622.8409
 Red. masses --      1.7775                 3.3736                 2.0145
 Frc consts  --      0.3924                 0.7569                 0.4604
 IR Inten    --    165.7712                27.7259               139.3437

                     40                     41                     42
                      A                      A                      A
 Frequencies --    693.0001               699.2105               705.8785
 Red. masses --      5.8268                 6.5118                 6.1676
 Frc consts  --      1.6487                 1.8757                 1.8106
 IR Inten    --      9.1099                29.5026                 7.5339

                     43                     44                     45
                      A                      A                      A
 Frequencies --    727.0356               731.0951               791.2993
 Red. masses --      5.1102                 5.0561                14.7131
 Frc consts  --      1.5915                 1.5923                 5.4279
 IR Inten    --      2.5568                15.4135               332.9872

                     46                     47                     48
                      A                      A                      A
 Frequencies --    808.8755               847.1908               849.8760
 Red. masses --     13.8269                 1.4938                 1.5011
 Frc consts  --      5.3301                 0.6317                 0.6388
 IR Inten    --    250.6478                43.3467                43.7301

                     49                     50                     51
                      A                      A                      A
 Frequencies --    871.8023               875.0593               913.2777
 Red. masses --      1.4102                 1.4186                 5.6167
 Frc consts  --      0.6315                 0.6400                 2.7602
 IR Inten    --     20.6100                10.8944                32.9955

                     52                     53                     54
                      A                      A                      A
 Frequencies --    920.1996               969.6922               972.1090
 Red. masses --      5.8498                 1.3162                 1.3165
 Frc consts  --      2.9185                 0.7292                 0.7330
 IR Inten    --     33.5936                 0.6359                 0.3077

                     55                     56                     57
                      A                      A                      A
 Frequencies --   1006.9059              1055.9903              1091.8880
 Red. masses --      6.9080                 3.2623                 2.1638
 Frc consts  --      4.1265                 2.1433                 1.5199
 IR Inten    --      9.6658                31.5851                38.1630

                     58                     59                     60
                      A                      A                      A
 Frequencies --   1103.3702              1110.0306              1121.5388
 Red. masses --      1.4996                 1.6731                 5.4068
 Frc consts  --      1.0757                 1.2146                 4.0070
 IR Inten    --      8.7489                13.2429               346.9160

                     61                     62                     63
                      A                      A                      A
 Frequencies --   1137.8000              1162.6944              1177.6322
 Red. masses --      6.2347                 1.3466                 1.2784
 Frc consts  --      4.7555                 1.0725                 1.0446
 IR Inten    --    278.0935                99.5526                58.6042

                     64                     65                     66
                      A                      A                      A
 Frequencies --   1178.1723              1259.9514              1272.2977
 Red. masses --      1.2806                 1.5991                 1.5796
 Frc consts  --      1.0473                 1.4956                 1.5065
 IR Inten    --     51.5260                85.9956                 0.7929

                     67                     68                     69
                      A                      A                      A
 Frequencies --   1276.4593              1301.8967              1308.4155
 Red. masses --      1.5802                 3.1272                 8.6075
 Frc consts  --      1.5169                 3.1229                 8.6819
 IR Inten    --     60.7194                13.9168               822.0784

                     70                     71                     72
                      A                      A                      A
 Frequencies --   1328.9307              1334.2501              1341.9687
 Red. masses --      3.3024                 3.1088                 3.3266
 Frc consts  --      3.4362                 3.2608                 3.5297
 IR Inten    --    307.9964               172.7411                 3.6724

                     73                     74                     75
                      A                      A                      A
 Frequencies --   1351.4687              1356.7208              1460.2734
 Red. masses --      3.3369                 3.4491                 2.8319
 Frc consts  --      3.5909                 3.7406                 3.5579
 IR Inten    --     46.5646                 2.7079                 9.6664

                     76                     77                     78
                      A                      A                      A
 Frequencies --   1464.1762              1522.5467              1553.1784
 Red. masses --      2.9179                 2.9777                 3.6744
 Frc consts  --      3.6856                 4.0670                 5.2226
 IR Inten    --      0.9664               429.3051                 1.2693

                     79                     80                     81
                      A                      A                      A
 Frequencies --   1596.2801              1597.6811              1651.0300
 Red. masses --      5.8832                 5.9745                 2.1738
 Frc consts  --      8.8324                 8.9853                 3.4913
 IR Inten    --      3.3951                 1.7675                11.3741

                     82                     83                     84
                      A                      A                      A
 Frequencies --   1653.5572              1666.1313              1668.4360
 Red. masses --      1.9064                 1.7516                 1.9636
 Frc consts  --      3.0712                 2.8648                 3.2205
 IR Inten    --     11.9678               112.5264               558.5717

                     85                     86                     87
                      A                      A                      A
 Frequencies --   3192.2930              3192.6614              3210.0469
 Red. masses --      1.0887                 1.0887                 1.0946
 Frc consts  --      6.5367                 6.5382                 6.6452
 IR Inten    --     20.0020                13.2444                11.2107

                     88                     89                     90
                      A                      A                      A
 Frequencies --   3210.8944              3217.1411              3227.4355
 Red. masses --      1.0944                 1.0907                 1.0906
 Frc consts  --      6.6479                 6.6512                 6.6934
 IR Inten    --     10.4350                 7.0954                 7.6585

                     91                     92                     93
                      A                      A                      A
 Frequencies --   3346.8460              3578.7791              3579.2224
 Red. masses --      1.0701                 1.0480                 1.0481
 Frc consts  --      7.0623                 7.9085                 7.9110
 IR Inten    --   1272.2973               106.1789                57.8983

                     94                     95                     96
                      A                      A                      A
 Frequencies --   3686.2951              3686.5502              3730.4508
 Red. masses --      1.1002                 1.1002                 1.0662
 Frc consts  --      8.8087                 8.8095                 8.7419
 IR Inten    --     39.5504                40.3016               207.2363

 - Thermochemistry -
 -------------------
 Temperature   298.150 Kelvin.  Pressure   1.00000 Atm.
 Atom     1 has atomic number  7 and mass  14.00307

 Molecular mass:   344.01368 amu.
 Principal axes and moments of inertia in atomic units:
                           1         2         3
     Eigenvalues --  5166.291679290.09081**********
           X            0.99953   0.03059   0.00083
           Y           -0.03059   0.99952  -0.00430
           Z           -0.00096   0.00427   0.99999
 This molecule is an asymmetric top.
 Rotational symmetry number  1.
 Warning -- assumption of classical behavior for rotation
           may cause significant error
 Rotational temperatures (Kelvin)      0.01677     0.00932     0.00864
 Rotational constants (GHZ):           0.34933     0.19427     0.18001
 Zero-point vibrational energy     637840.9 (Joules/Mol)
                                  152.44763 (Kcal/Mol)
 Warning -- explicit consideration of  38 degrees of freedom as
           vibrations may cause significant error
 Vibrational temperatures:     51.43    64.55    73.78    80.08   105.58
          (Kelvin)            168.98   191.42   215.21   222.34   260.78
                              278.35   325.71   346.21   385.52   408.89
                              423.21   450.54   462.48   487.46   505.52
                              509.04   550.64   561.66   611.80   614.04
                              624.65   646.54   687.03   698.60   728.76
                              732.12   763.83   777.16   780.39   825.12
                              841.30   880.64   887.86   896.13   997.07
                             1006.01  1015.60  1046.04  1051.88  1138.50
                             1163.79  1218.92  1222.78  1254.33  1259.02
                             1314.00  1323.96  1395.17  1398.65  1448.71
                             1519.33  1570.98  1587.50  1597.09  1613.64
                             1637.04  1672.86  1694.35  1695.13  1812.79
                             1830.55  1836.54  1873.14  1882.52  1912.03
                             1919.69  1930.79  1944.46  1952.02  2101.01
                             2106.62  2190.61  2234.68  2296.69  2298.71
                             2375.46  2379.10  2397.19  2400.51  4593.00
                             4593.53  4618.54  4619.76  4628.75  4643.56
                             4815.36  5149.06  5149.70  5303.76  5304.12
                             5367.29

 Zero-point correction=                           0.242941 (Hartree/Particle)
 Thermal correction to Energy=                    0.263557
 Thermal correction to Enthalpy=                  0.264501
 Thermal correction to Gibbs Free Energy=         0.194096
 Sum of electronic and zero-point Energies=          -1821.413334
 Sum of electronic and thermal Energies=             -1821.392718
 Sum of electronic and thermal Enthalpies=           -1821.391774
 Sum of electronic and thermal Free Energies=        -1821.462179

                     E (Thermal)             CV                S
                      KCal/Mol        Cal/Mol-Kelvin    Cal/Mol-Kelvin
 Total                  165.384             80.250            148.181
 Electronic               0.000              0.000              0.000
 Translational            0.889              2.981             43.401
 Rotational               0.889              2.981             34.530
 Vibrational            163.607             74.288             70.249
 Vibration     1          0.594              1.982              5.482
 Vibration     2          0.595              1.979              5.032
 Vibration     3          0.596              1.977              4.767
 Vibration     4          0.596              1.975              4.606
 Vibration     5          0.599              1.967              4.061
 Vibration     6          0.608              1.935              3.142
 Vibration     7          0.613              1.920              2.902
 Vibration     8          0.618              1.903              2.678
 Vibration     9          0.620              1.898              2.616
 Vibration    10          0.630              1.865              2.315
 Vibration    11          0.635              1.849              2.194
 Vibration    12          0.650              1.801              1.907
 Vibration    13          0.658              1.778              1.798
 Vibration    14          0.673              1.732              1.609
 Vibration    15          0.683              1.703              1.508
 Vibration    16          0.689              1.685              1.450
 Vibration    17          0.701              1.649              1.346
 Vibration    18          0.707              1.632              1.303
 Vibration    19          0.719              1.598              1.218
 Vibration    20          0.728              1.572              1.160
 Vibration    21          0.730              1.567              1.149
 Vibration    22          0.752              1.507              1.028
 Vibration    23          0.758              1.491              0.999
 Vibration    24          0.787              1.415              0.874
 Vibration    25          0.788              1.412              0.869
 Vibration    26          0.795              1.396              0.845
 Vibration    27          0.808              1.362              0.798
 Vibration    28          0.834              1.300              0.717
 Vibration    29          0.842              1.282              0.695
 Vibration    30          0.862              1.236              0.642
 Vibration    31          0.864              1.230              0.636
 Vibration    32          0.886              1.182              0.585
 Vibration    33          0.895              1.161              0.565
 Vibration    34          0.897              1.156              0.560
 Vibration    35          0.930              1.089              0.498
 Vibration    36          0.942              1.064              0.477
 Vibration    37          0.971              1.006              0.429
 Vibration    38          0.977              0.996              0.421

 Optimization completed.
    -- Stationary point found.
 Normal termination of Gaussian 16 at Thu Jul 18 13:58:22 2024.
 Gaussian 16:  ES64L-G16RevA.03 25-Dec-2016

 ----------------------------------------------------------------------
 # TD(NStates=10, Root=1) B3LYP/6-31G** SCRF=(Solvent=water) volume pop
 =NPA density=current Geom=AllCheck Guess=Read
 ----------------------------------------------------------------------

 Structure from the checkpoint file:  "MBJAPGAZEWPEFB-UHFFFAOYSA-N_conf_1_2.chk"
 ----------------------------------
 MBJAPGAZEWPEFB-UHFFFAOYSA-N_conf_1
 ----------------------------------
 Charge =  0 Multiplicity = 1

                         Standard orientation:
 ---------------------------------------------------------------------
 Center     Atomic      Atomic             Coordinates (Angstroms)
 Number     Number       Type             X           Y           Z
 ---------------------------------------------------------------------
      1          7           0        4.852052    1.207418    1.302093
      2          6           0        3.514747    0.901250    1.136812
      3          6           0        2.526605    1.466524    1.965428
      4          6           0        1.192595    1.109712    1.828564
      5          6           0        0.749095    0.182495    0.871745
      6          6           0       -0.700145   -0.197221    0.862029
      7          6           0       -1.109253   -1.257166    1.689606
      8          6           0       -2.440008   -1.621339    1.840372
      9          6           0       -3.457390   -0.920974    1.165650
     10          7           0       -4.790973   -1.224202    1.362185
     11          6           0       -3.075214    0.141983    0.328782
     12          6           0       -1.731668    0.488419    0.189458
     13         16           0       -1.419694    1.812254   -0.989208
     14          8           0       -0.168168    2.500501   -0.667068
     15          8           0       -1.255387    1.020738   -2.391011
     16          8           0       -2.637398    2.606696   -1.157682
     17          6           0        1.754722   -0.379862    0.063661
     18         16           0        1.387123   -1.594062   -1.197592
     19          8           0        2.613951   -1.963717   -1.899220
     20          8           0        0.835138   -2.889602   -0.383674
     21          8           0        0.215299   -1.183173   -1.988104
     22          6           0        3.103079   -0.037197    0.175366
     23          1           0        5.455931    1.026872    0.511937
     24          1           0        5.055508    2.088411    1.754029
     25          1           0        2.813405    2.189676    2.723198
     26          1           0        0.455406    1.565573    2.481397
     27          1           0       -0.348776   -1.806488    2.234635
     28          1           0       -2.699944   -2.448683    2.494059
     29          1           0       -5.432211   -0.921147    0.642051
     30          1           0       -4.993093   -2.156393    1.696762
     31          1           0       -3.829431    0.706443   -0.207812
     32          1           0       -0.595117    0.286040   -2.292543
     33          1           0        1.590899   -3.394273   -0.029533
     34          1           0        3.830542   -0.500881   -0.480100
 ---------------------------------------------------------------------

 SCF Done:  E(RB3LYP) =  -1821.65627461     A.U. after    1 cycles

 Excitation energies and oscillator strengths:

 Excited State   1:      Singlet-A      3.9864 eV  311.02 nm  f=0.1119  <S**2>=0.000
      89 -> 90         0.69437
 This state for optimization and/or second-order correction.
 Total Energy, E(TD-HF/TD-DFT) =  -1821.50977865
 Copying the excited state density for this state as the 1-particle RhoCI density.

 Excited State   2:      Singlet-A      4.0719 eV  304.49 nm  f=0.0532  <S**2>=0.000
      88 -> 90         0.68744

 Excited State   3:      Singlet-A      4.3177 eV  287.16 nm  f=0.0464  <S**2>=0.000
      88 -> 92         0.11167
      89 -> 91         0.67736

 Excited State   4:      Singlet-A      4.3559 eV  284.63 nm  f=0.0929  <S**2>=0.000
      88 -> 91         0.69192

 Excited State   5:      Singlet-A      4.9649 eV  249.72 nm  f=0.2530  <S**2>=0.000
      88 -> 93         0.14941
      89 -> 92         0.67720

 Excited State   6:      Singlet-A      5.0270 eV  246.64 nm  f=0.0170  <S**2>=0.000
      88 -> 92         0.53149
      89 -> 93         0.45181

 Excited State   7:      Singlet-A      5.1646 eV  240.07 nm  f=0.3807  <S**2>=0.000
      86 -> 90         0.12843
      87 -> 90         0.13362
      88 -> 92         0.11055
      88 -> 93         0.64057
      89 -> 92        -0.11616
      89 -> 93        -0.10708

 Excited State   8:      Singlet-A      5.2619 eV  235.63 nm  f=0.0426  <S**2>=0.000
      86 -> 90        -0.25104
      87 -> 90         0.12261
      87 -> 91        -0.17478
      88 -> 92        -0.35797
      88 -> 93         0.15685
      89 -> 91         0.10534
      89 -> 93         0.46129

 Excited State   9:      Singlet-A      5.4695 eV  226.68 nm  f=0.2163  <S**2>=0.000
      87 -> 90         0.64659
      87 -> 91         0.20263
      88 -> 93        -0.10903

 Excited State  10:      Singlet-A      5.6666 eV  218.80 nm  f=0.3475  <S**2>=0.000
      86 -> 90         0.55057
      86 -> 91        -0.22969
      87 -> 90         0.13970
      87 -> 91        -0.28610
      88 -> 92        -0.10490

 The electronic state is 1-A.
 Alpha  occ. eigenvalues --  -89.15733 -89.13713 -19.22394 -19.19798 -19.18145
 Alpha  occ. eigenvalues --  -19.17622 -19.15730 -19.15636 -14.35026 -14.34960
 Alpha  occ. eigenvalues --  -10.25023 -10.24870 -10.24662 -10.24041 -10.22410
 Alpha  occ. eigenvalues --  -10.22154 -10.21212 -10.20806 -10.20804 -10.20748
 Alpha  occ. eigenvalues --  -10.20351 -10.20152  -8.18040  -8.16016  -6.14634
 Alpha  occ. eigenvalues --   -6.14469  -6.14280  -6.12601  -6.12420  -6.12296
 Alpha  occ. eigenvalues --   -1.16682  -1.14565  -1.05833  -1.04014  -1.03191
 Alpha  occ. eigenvalues --   -1.01421  -0.93313  -0.93162  -0.88168  -0.85591
 Alpha  occ. eigenvalues --   -0.78650  -0.78019  -0.77585  -0.73025  -0.70328
 Alpha  occ. eigenvalues --   -0.68108  -0.63996  -0.63173  -0.62658  -0.60945
 Alpha  occ. eigenvalues --   -0.57859  -0.56978  -0.53749  -0.53147  -0.52691
 Alpha  occ. eigenvalues --   -0.52095  -0.50605  -0.50412  -0.49071  -0.48563
 Alpha  occ. eigenvalues --   -0.48011  -0.45994  -0.45248  -0.45139  -0.44825
 Alpha  occ. eigenvalues --   -0.44124  -0.42986  -0.42567  -0.40364  -0.40012
 Alpha  occ. eigenvalues --   -0.39272  -0.38548  -0.38066  -0.37161  -0.36996
 Alpha  occ. eigenvalues --   -0.36579  -0.35914  -0.34850  -0.34242  -0.33579
 Alpha  occ. eigenvalues --   -0.33238  -0.32712  -0.32259  -0.31430  -0.30364
 Alpha  occ. eigenvalues --   -0.27600  -0.27182  -0.22055  -0.21815
 Alpha virt. eigenvalues --   -0.04911  -0.03731  -0.01316  -0.00778   0.03076
 Alpha virt. eigenvalues --    0.05313   0.06454   0.07872   0.08179   0.08807
 Alpha virt. eigenvalues --    0.09047   0.09465   0.09951   0.10565   0.11158

 Mulliken charges:
               1
     1  N   -0.635510
     2  C    0.282691
     3  C   -0.164242
     4  C   -0.094841
     5  C    0.047785
     6  C    0.030074
     7  C   -0.076750
     8  C   -0.103170
     9  C    0.293757
    10  N   -0.583085
    11  C   -0.096493
    12  C   -0.238384
    13  S    1.194861
    14  O   -0.533845
    15  O   -0.582882
    16  O   -0.548728
    17  C   -0.273338
    18  S    1.186899
    19  O   -0.543069
    20  O   -0.556012
    21  O   -0.599612
    22  C   -0.155412
    23  H    0.297788
    24  H    0.296706
    25  H    0.091103
    26  H    0.103692
    27  H    0.134151
    28  H    0.137838
    29  H    0.327191
    30  H    0.327023
    31  H    0.156160
    32  H    0.390264
    33  H    0.369534
    34  H    0.117856
 Sum of Mulliken charges =  -0.00000

 Dipole moment (field-independent basis, Debye):
    X=             -3.8800    Y=             -7.0990    Z=             10.0102  Tot=             12.8707
 Quadrupole moment (field-independent basis, Debye-Ang):
   XX=            -73.8077   YY=           -140.6662   ZZ=           -146.9869
   XY=             35.2566   XZ=             -7.0054   YZ=             -4.3676

 Summary of Natural Population Analysis:

                                       Natural Population
                Natural  -----------------------------------------------
    Atom  No    Charge         Core      Valence    Rydberg      Total
 -----------------------------------------------------------------------
      N    1   -0.77578      1.99948     5.76535    0.01095     7.77578
      C    2    0.18485      1.99899     3.79745    0.01871     5.81515
      C    3   -0.35003      1.99904     4.33526    0.01574     6.35003
      C    4   -0.19962      1.99903     4.18616    0.01442     6.19962
      C    5   -0.08299      1.99889     4.06306    0.02104     6.08299
      C    6    0.02630      1.99891     3.95400    0.02078     5.97370
      C    7   -0.19628      1.99904     4.18267    0.01457     6.19628
      C    8   -0.25617      1.99904     4.24281    0.01432     6.25617
      C    9    0.20337      1.99898     3.77999    0.01766     5.79663
      N   10   -0.69553      1.99947     5.68646    0.00961     7.69553
      C   11   -0.22990      1.99896     4.21439    0.01655     6.22990
      C   12   -0.34333      1.99862     4.31700    0.02771     6.34333
      S   13    2.41055      9.99879     3.38586    0.20480    13.58945
      O   14   -0.94780      1.99988     6.92697    0.02095     8.94780
      O   15   -0.94505      1.99985     6.93467    0.01054     8.94505
      O   16   -0.96638      1.99988     6.94530    0.02120     8.96638
      C   17   -0.40401      1.99862     4.37745    0.02794     6.40401
      S   18    2.38632      9.99873     3.41329    0.20166    13.61368
      O   19   -0.96540      1.99988     6.94440    0.02112     8.96540
      O   20   -0.93831      1.99988     6.92602    0.01241     8.93831
      O   21   -1.00203      1.99984     6.98356    0.01863     9.00203
      C   22   -0.30611      1.99896     4.29002    0.01714     6.30611
      H   23    0.42696      0.00000     0.57071    0.00233     0.57304
      H   24    0.42601      0.00000     0.57143    0.00257     0.57399
      H   25    0.24418      0.00000     0.75435    0.00147     0.75582
      H   26    0.25235      0.00000     0.74624    0.00141     0.74765
      H   27    0.27196      0.00000     0.72663    0.00141     0.72804
      H   28    0.26599      0.00000     0.73261    0.00140     0.73401
      H   29    0.44458      0.00000     0.55346    0.00196     0.55542
      H   30    0.44459      0.00000     0.55338    0.00203     0.55541
      H   31    0.27815      0.00000     0.71977    0.00207     0.72185
      H   32    0.53854      0.00000     0.45548    0.00598     0.46146
      H   33    0.53934      0.00000     0.45740    0.00326     0.46066
      H   34    0.26070      0.00000     0.73731    0.00199     0.73930
 =======================================================================
   * Total *    0.00000     59.98276   117.23091    0.78633   178.00000

 Normal termination of Gaussian 16 at Thu Jul 18 14:35:03 2024.
