 Gaussian 16, Revision A.03,

 -------------------------------------------------------
 # opt=CalcFc B3LYP/6-31G** SCRF=(Solvent=water) scf=xqc
 -------------------------------------------------------

 ----------------------------------
 MBJAPGAZEWPEFB-UHFFFAOYSA-N_conf_4
 ----------------------------------
 Symbolic Z-matrix:
 Charge =  0 Multiplicity = 1

 SCF Done:  E(RB3LYP) =  -1821.63896947     A.U. after   13 cycles
 SCF Done:  E(RB3LYP) =  -1821.64885156     A.U. after   12 cycles
 SCF Done:  E(RB3LYP) =  -1821.64773036     A.U. after   12 cycles
 SCF Done:  E(RB3LYP) =  -1821.63556377     A.U. after   12 cycles
 SCF Done:  E(RB3LYP) =  -1821.63520512     A.U. after   12 cycles
 SCF Done:  E(RB3LYP) =  -1821.64907014     A.U. after    8 cycles
 SCF Done:  E(RB3LYP) =  -1821.64972459     A.U. after   12 cycles
 SCF Done:  E(RB3LYP) =  -1821.61510428     A.U. after   12 cycles
 SCF Done:  E(RB3LYP) =  -1821.64987791     A.U. after   10 cycles
 SCF Done:  E(RB3LYP) =  -1821.64999785     A.U. after   10 cycles
 SCF Done:  E(RB3LYP) =  -1821.65003081     A.U. after    9 cycles
 SCF Done:  E(RB3LYP) =  -1821.65008938     A.U. after   10 cycles
 SCF Done:  E(RB3LYP) =  -1821.65012476     A.U. after    9 cycles
 SCF Done:  E(RB3LYP) =  -1821.65014830     A.U. after    9 cycles
 SCF Done:  E(RB3LYP) =  -1821.65015170     A.U. after    8 cycles
 SCF Done:  E(RB3LYP) =  -1821.65015207     A.U. after    8 cycles
 SCF Done:  E(RB3LYP) =  -1821.65015215     A.U. after    8 cycles
 SCF Done:  E(RB3LYP) =  -1821.65015215     A.U. after    6 cycles
 Optimization completed.
    -- Stationary point found.
 Normal termination of Gaussian 16 at Thu Jul 18 14:20:01 2024.

 ----------------------------------------------------------------------
 # freq B3LYP/6-31G** SCRF=(Solvent=water) volume NMR pop=NPA density=c
 urrent Geom=AllCheck Guess=Read
 ----------------------------------------------------------------------

 Structure from the checkpoint file:  "MBJAPGAZEWPEFB-UHFFFAOYSA-N_conf_4_1.chk"
 ----------------------------------
 MBJAPGAZEWPEFB-UHFFFAOYSA-N_conf_4
 ----------------------------------
 Charge =  0 Multiplicity = 1

 SCF Done:  E(RB3LYP) =  -1821.65015215     A.U. after    1 cycles

      1  N    Isotropic =   194.7290   Anisotropy =    70.5083

      2  C    Isotropic =    48.8996   Anisotropy =   161.5247

      3  C    Isotropic =    78.4306   Anisotropy =   138.8937

      4  C    Isotropic =    65.1015   Anisotropy =   153.9720

      5  C    Isotropic =    70.8038   Anisotropy =   147.4867

      6  C    Isotropic =    70.8033   Anisotropy =   147.4872

      7  C    Isotropic =    65.1018   Anisotropy =   153.9720

      8  C    Isotropic =    78.4304   Anisotropy =   138.8939

      9  C    Isotropic =    48.8998   Anisotropy =   161.5247

     10  N    Isotropic =   194.7295   Anisotropy =    70.5085

     11  C    Isotropic =    81.8248   Anisotropy =   131.2865

     12  C    Isotropic =    50.3534   Anisotropy =   105.7425

     13  S    Isotropic =   221.0719   Anisotropy =   242.9630

     14  O    Isotropic =   106.7718   Anisotropy =    36.0452

     15  O    Isotropic =   118.2886   Anisotropy =   218.9338

     16  O    Isotropic =   136.0568   Anisotropy =    52.8326

     17  C    Isotropic =    50.3527   Anisotropy =   105.7429

     18  S    Isotropic =   221.0695   Anisotropy =   242.9669

     19  O    Isotropic =   136.0528   Anisotropy =    52.8251

     20  O    Isotropic =   118.2881   Anisotropy =   218.9447

     21  O    Isotropic =   106.7723   Anisotropy =    36.0509

     22  C    Isotropic =    81.8247   Anisotropy =   131.2863

     23  H    Isotropic =    27.9641   Anisotropy =    12.1939

     24  H    Isotropic =    27.9706   Anisotropy =    12.6977

     25  H    Isotropic =    24.8257   Anisotropy =     5.6353

     26  H    Isotropic =    24.6012   Anisotropy =     7.7120

     27  H    Isotropic =    24.6011   Anisotropy =     7.7120

     28  H    Isotropic =    24.8257   Anisotropy =     5.6354

     29  H    Isotropic =    27.9706   Anisotropy =    12.6977

     30  H    Isotropic =    27.9641   Anisotropy =    12.1938

     31  H    Isotropic =    24.5055   Anisotropy =     9.4622

     32  H    Isotropic =    26.3577   Anisotropy =    13.2700

     33  H    Isotropic =    26.3578   Anisotropy =    13.2682

     34  H    Isotropic =    24.5055   Anisotropy =     9.4622

  Exact polarizability: 363.850  40.546 232.170   0.000   0.001 187.355
 Approx polarizability: 427.848  32.024 277.679   0.000   0.001 236.844

                      1                      2                      3
                      A                      A                      A
 Frequencies --     38.1109                38.2738                47.3407
 Red. masses --      7.8576                 8.0717                 8.6567
 Frc consts  --      0.0067                 0.0070                 0.0114
 IR Inten    --      1.0796                 5.2864                 3.8264

                      4                      5                      6
                      A                      A                      A
 Frequencies --     50.0740                58.5921               112.2366
 Red. masses --      6.8183                 7.5732                 5.5929
 Frc consts  --      0.0101                 0.0153                 0.0415
 IR Inten    --      5.6681                 0.0730                 0.0040

                      7                      8                      9
                      A                      A                      A
 Frequencies --    137.3577               143.6209               149.6344
 Red. masses --      5.2534                 7.0580                 7.3551
 Frc consts  --      0.0584                 0.0858                 0.0970
 IR Inten    --      0.0147                 0.0286                 6.8740

                     10                     11                     12
                      A                      A                      A
 Frequencies --    181.0852               191.7953               222.4766
 Red. masses --      6.2989                 5.4645                 5.8311
 Frc consts  --      0.1217                 0.1184                 0.1700
 IR Inten    --      1.8281                11.4323                 4.3539

                     13                     14                     15
                      A                      A                      A
 Frequencies --    254.6376               261.9934               272.6245
 Red. masses --      1.6741                 1.9672                 5.5533
 Frc consts  --      0.0640                 0.0796                 0.2432
 IR Inten    --    105.7720               134.7841                22.2291

                     16                     17                     18
                      A                      A                      A
 Frequencies --    282.9619               283.0274               313.8128
 Red. masses --      4.3651                 2.9539                 7.3090
 Frc consts  --      0.2059                 0.1394                 0.4241
 IR Inten    --     77.6758                29.6689                 1.8073

                     19                     20                     21
                      A                      A                      A
 Frequencies --    342.1187               342.2505               367.5641
 Red. masses --      3.6116                 3.6213                 1.0911
 Frc consts  --      0.2491                 0.2499                 0.0868
 IR Inten    --     55.7358                83.7093                16.0810

                     22                     23                     24
                      A                      A                      A
 Frequencies --    368.1628               390.7007               394.4225
 Red. masses --      1.0848                 4.0725                 3.5634
 Frc consts  --      0.0866                 0.3663                 0.3266
 IR Inten    --     11.4633                 0.0085                21.1396

                     25                     26                     27
                      A                      A                      A
 Frequencies --    415.7859               419.9976               443.9193
 Red. masses --      4.0178                 4.3719                 4.8827
 Frc consts  --      0.4092                 0.4544                 0.5669
 IR Inten    --    113.7624                 2.4883                14.4635

                     28                     29                     30
                      A                      A                      A
 Frequencies --    443.9279               475.7178               477.7371
 Red. masses --      6.8357                 1.8978                 2.2460
 Frc consts  --      0.7937                 0.2530                 0.3020
 IR Inten    --     47.9201               406.8412               179.4594

                     31                     32                     33
                      A                      A                      A
 Frequencies --    488.2202               496.4822               528.0124
 Red. masses --      2.4733                 2.2185                 5.1430
 Frc consts  --      0.3473                 0.3222                 0.8448
 IR Inten    --    654.7130                29.7292                 5.2684

                     34                     35                     36
                      A                      A                      A
 Frequencies --    536.8023               540.9390               577.8481
 Red. masses --      5.0943                 6.5721                 9.3496
 Frc consts  --      0.8649                 1.1330                 1.8394
 IR Inten    --     88.4874               151.5073                80.3245

                     37                     38                     39
                      A                      A                      A
 Frequencies --    578.8559               618.4909               618.6772
 Red. masses --     12.2419                 3.5540                 3.5434
 Frc consts  --      2.4168                 0.8010                 0.7991
 IR Inten    --    128.5008                17.4966                21.2693

                     40                     41                     42
                      A                      A                      A
 Frequencies --    693.8066               698.8338               701.2935
 Red. masses --      5.8970                 6.8539                 6.3439
 Frc consts  --      1.6725                 1.9721                 1.8383
 IR Inten    --      3.6181                 3.5793                44.5655

                     43                     44                     45
                      A                      A                      A
 Frequencies --    723.2575               733.1849               774.5162
 Red. masses --      5.4722                 5.6600                14.2556
 Frc consts  --      1.6866                 1.7926                 5.0385
 IR Inten    --      0.8027                 1.1905               589.2070

                     46                     47                     48
                      A                      A                      A
 Frequencies --    778.0327               850.3460               852.1353
 Red. masses --     14.4289                 1.4601                 1.4931
 Frc consts  --      5.1461                 0.6221                 0.6388
 IR Inten    --     40.2814                42.9845                39.9270

                     49                     50                     51
                      A                      A                      A
 Frequencies --    883.1217               883.7229               912.2095
 Red. masses --      1.3967                 1.3909                 5.5549
 Frc consts  --      0.6418                 0.6400                 2.7234
 IR Inten    --     19.2457                 8.2602                65.1285

                     52                     53                     54
                      A                      A                      A
 Frequencies --    919.3457               971.7389               971.8481
 Red. masses --      5.7803                 1.2660                 1.2786
 Frc consts  --      2.8785                 0.7044                 0.7115
 IR Inten    --      1.0478                 1.7527                 2.0565

                     55                     56                     57
                      A                      A                      A
 Frequencies --   1007.0158              1056.5661              1088.9861
 Red. masses --      6.7989                 3.1536                 2.0593
 Frc consts  --      4.0622                 2.0742                 1.4388
 IR Inten    --      0.8742                19.2767                12.0906

                     58                     59                     60
                      A                      A                      A
 Frequencies --   1100.0369              1106.3681              1140.2258
 Red. masses --      1.4624                 1.7252                 4.6810
 Frc consts  --      1.0427                 1.2442                 3.5856
 IR Inten    --      3.6190                 0.8468                13.3080

                     61                     62                     63
                      A                      A                      A
 Frequencies --   1141.0527              1154.4430              1156.1869
 Red. masses --      5.2646                 1.3404                 1.3864
 Frc consts  --      4.0386                 1.0525                 1.0919
 IR Inten    --    515.1419               196.6507                 4.9089

                     64                     65                     66
                      A                      A                      A
 Frequencies --   1176.2457              1177.9246              1270.3828
 Red. masses --      1.3010                 1.2847                 1.5633
 Frc consts  --      1.0605                 1.0503                 1.4865
 IR Inten    --     40.6384                64.5394                 1.4244

                     67                     68                     69
                      A                      A                      A
 Frequencies --   1272.4834              1312.3025              1329.1325
 Red. masses --      1.5609                 2.7582                 5.5102
 Frc consts  --      1.4891                 2.7987                 5.7353
 IR Inten    --     63.9678                10.8798               924.2431

                     70                     71                     72
                      A                      A                      A
 Frequencies --   1335.7545              1338.5285              1344.2581
 Red. masses --      4.7968                 8.1989                 5.0176
 Frc consts  --      5.0426                 8.6549                 5.3421
 IR Inten    --    137.7242                 5.2132                 2.4218

                     73                     74                     75
                      A                      A                      A
 Frequencies --   1355.2256              1356.0660              1463.4203
 Red. masses --      2.9527                 2.9460                 2.9179
 Frc consts  --      3.1951                 3.1919                 3.6817
 IR Inten    --    113.7141                21.4300                13.5239

                     76                     77                     78
                      A                      A                      A
 Frequencies --   1467.5988              1520.3083              1552.2493
 Red. masses --      2.9788                 3.0343                 3.8408
 Frc consts  --      3.7801                 4.1322                 5.4525
 IR Inten    --      1.0284               437.3926                 0.0037

                     79                     80                     81
                      A                      A                      A
 Frequencies --   1595.1190              1598.0337              1650.3556
 Red. masses --      5.8027                 5.8521                 2.6487
 Frc consts  --      8.6989                 8.8051                 4.2505
 IR Inten    --      6.8263                 0.1189                 1.7932

                     82                     83                     84
                      A                      A                      A
 Frequencies --   1652.4260              1666.2722              1667.3661
 Red. masses --      2.1363                 1.5492                 1.7693
 Frc consts  --      3.4369                 2.5342                 2.8980
 IR Inten    --     47.3581                16.6950               702.0805

                     85                     86                     87
                      A                      A                      A
 Frequencies --   3190.0795              3190.1258              3204.3193
 Red. masses --      1.0880                 1.0880                 1.0950
 Frc consts  --      6.5235                 6.5239                 6.6241
 IR Inten    --     22.1049                 0.0825                13.6764

                     88                     89                     90
                      A                      A                      A
 Frequencies --   3204.5820              3224.7477              3224.7519
 Red. masses --      1.0951                 1.0907                 1.0907
 Frc consts  --      6.6260                 6.6829                 6.6828
 IR Inten    --      7.7364                10.6308                 5.1550

                     91                     92                     93
                      A                      A                      A
 Frequencies --   3582.4261              3582.5890              3691.7363
 Red. masses --      1.0478                 1.0479                 1.1007
 Frc consts  --      7.9231                 7.9244                 8.8389
 IR Inten    --    177.9217                12.2402                43.8173

                     94                     95                     96
                      A                      A                      A
 Frequencies --   3691.7409              3696.8285              3697.6559
 Red. masses --      1.1007                 1.0662                 1.0662
 Frc consts  --      8.8390                 8.5849                 8.5891
 IR Inten    --     41.2550                43.1949               452.2780

 - Thermochemistry -
 -------------------
 Temperature   298.150 Kelvin.  Pressure   1.00000 Atm.
 Atom     1 has atomic number  7 and mass  14.00307

 Molecular mass:   344.01368 amu.
 Principal axes and moments of inertia in atomic units:
                           1         2         3
     Eigenvalues --  5292.831638637.52487**********
           X            0.99919   0.04016   0.00000
           Y           -0.04016   0.99919  -0.00000
           Z           -0.00000   0.00000   1.00000
 This molecule is an asymmetric top.
 Rotational symmetry number  1.
 Warning -- assumption of classical behavior for rotation
           may cause significant error
 Rotational temperatures (Kelvin)      0.01636     0.01003     0.00824
 Rotational constants (GHZ):           0.34098     0.20894     0.17172
 Zero-point vibrational energy     636937.3 (Joules/Mol)
                                  152.23167 (Kcal/Mol)
 Warning -- explicit consideration of  39 degrees of freedom as
           vibrations may cause significant error
 Vibrational temperatures:     54.83    55.07    68.11    72.05    84.30
          (Kelvin)            161.48   197.63   206.64   215.29   260.54
                              275.95   320.09   366.37   376.95   392.25
                              407.12   407.21   451.51   492.23   492.42
                              528.84   529.70   562.13   567.49   598.22
                              604.28   638.70   638.71   684.45   687.36
                              702.44   714.33   759.69   772.34   778.29
                              831.39   832.84   889.87   890.14   998.23
                             1005.47  1009.00  1040.61  1054.89  1114.36
                             1119.42  1223.46  1226.03  1270.62  1271.48
                             1312.47  1322.73  1398.12  1398.27  1448.87
                             1520.16  1566.81  1582.71  1591.82  1640.53
                             1641.72  1660.99  1663.50  1692.36  1694.77
                             1827.80  1830.82  1888.11  1912.33  1921.85
                             1925.84  1934.09  1949.87  1951.08  2105.54
                             2111.55  2187.38  2233.34  2295.02  2299.21
                             2374.49  2377.47  2397.39  2398.97  4589.81
                             4589.88  4610.30  4610.68  4639.69  4639.70
                             5154.31  5154.55  5311.59  5311.59  5318.91
                             5320.10

 Zero-point correction=                           0.242597 (Hartree/Particle)
 Thermal correction to Energy=                    0.263598
 Thermal correction to Enthalpy=                  0.264542
 Thermal correction to Gibbs Free Energy=         0.193051
 Sum of electronic and zero-point Energies=          -1821.407556
 Sum of electronic and thermal Energies=             -1821.386554
 Sum of electronic and thermal Enthalpies=           -1821.385610
 Sum of electronic and thermal Free Energies=        -1821.457101

                     E (Thermal)             CV                S
                      KCal/Mol        Cal/Mol-Kelvin    Cal/Mol-Kelvin
 Total                  165.410             81.112            150.466
 Electronic               0.000              0.000              0.000
 Translational            0.889              2.981             43.401
 Rotational               0.889              2.981             34.529
 Vibrational            163.633             75.151             72.536
 Vibration     1          0.594              1.982              5.355
 Vibration     2          0.594              1.982              5.346
 Vibration     3          0.595              1.979              4.925
 Vibration     4          0.595              1.978              4.814
 Vibration     5          0.596              1.974              4.504
 Vibration     6          0.607              1.939              3.230
 Vibration     7          0.614              1.916              2.840
 Vibration     8          0.616              1.910              2.755
 Vibration     9          0.618              1.903              2.677
 Vibration    10          0.630              1.865              2.317
 Vibration    11          0.634              1.851              2.210
 Vibration    12          0.648              1.807              1.939
 Vibration    13          0.665              1.755              1.698
 Vibration    14          0.669              1.742              1.648
 Vibration    15          0.676              1.724              1.580
 Vibration    16          0.682              1.705              1.516
 Vibration    17          0.682              1.705              1.515
 Vibration    18          0.702              1.647              1.342
 Vibration    19          0.721              1.591              1.202
 Vibration    20          0.721              1.591              1.202
 Vibration    21          0.740              1.539              1.090
 Vibration    22          0.741              1.538              1.087
 Vibration    23          0.758              1.490              0.997
 Vibration    24          0.761              1.482              0.983
 Vibration    25          0.779              1.436              0.906
 Vibration    26          0.783              1.427              0.892
 Vibration    27          0.803              1.374              0.814
 Vibration    28          0.803              1.374              0.814
 Vibration    29          0.832              1.304              0.722
 Vibration    30          0.834              1.299              0.716
 Vibration    31          0.844              1.276              0.688
 Vibration    32          0.852              1.258              0.667
 Vibration    33          0.883              1.188              0.592
 Vibration    34          0.892              1.169              0.572
 Vibration    35          0.896              1.160              0.563
 Vibration    36          0.934              1.079              0.489
 Vibration    37          0.935              1.077              0.487
 Vibration    38          0.978              0.993              0.419
 Vibration    39          0.979              0.992              0.419

 Optimization completed.
    -- Stationary point found.
 Normal termination of Gaussian 16 at Thu Jul 18 14:53:52 2024.
 Gaussian 16:  ES64L-G16RevA.03 25-Dec-2016

 ----------------------------------------------------------------------
 # TD(NStates=10, Root=1) B3LYP/6-31G** SCRF=(Solvent=water) volume pop
 =NPA density=current Geom=AllCheck Guess=Read
 ----------------------------------------------------------------------

 Structure from the checkpoint file:  "MBJAPGAZEWPEFB-UHFFFAOYSA-N_conf_4_2.chk"
 ----------------------------------
 MBJAPGAZEWPEFB-UHFFFAOYSA-N_conf_4
 ----------------------------------
 Charge =  0 Multiplicity = 1

                         Standard orientation:
 ---------------------------------------------------------------------
 Center     Atomic      Atomic             Coordinates (Angstroms)
 Number     Number       Type             X           Y           Z
 ---------------------------------------------------------------------
      1          7           0       -4.787785   -1.395677    0.917836
      2          6           0       -3.474061   -0.977201    0.915127
      3          6           0       -2.492803   -1.636509    1.678591
      4          6           0       -1.160087   -1.242926    1.614231
      5          6           0       -0.721495   -0.194419    0.788363
      6          6           0        0.721528    0.194438    0.788351
      7          6           0        1.160141    1.242942    1.614208
      8          6           0        2.492867    1.636495    1.678565
      9          6           0        3.474109    0.977163    0.915104
     10          7           0        4.787844    1.395612    0.917809
     11          6           0        3.063175   -0.099830    0.105504
     12          6           0        1.723266   -0.470521    0.054196
     13         16           0        1.346161   -1.864589   -1.020377
     14          8           0        0.187029   -1.573617   -1.863532
     15          8           0        0.923623   -3.047689    0.027790
     16          8           0        2.588241   -2.340260   -1.623647
     17          6           0       -1.723249    0.470514    0.054206
     18         16           0       -1.346190    1.864609   -1.020355
     19          8           0       -2.588279    2.340174   -1.623691
     20          8           0       -0.923805    3.047738    0.027848
     21          8           0       -0.186995    1.573717   -1.863456
     22          6           0       -3.063150    0.099797    0.105522
     23          1           0       -5.480798   -0.725522    0.614999
     24          1           0       -5.086854   -1.943003    1.712864
     25          1           0       -2.780625   -2.454073    2.332693
     26          1           0       -0.431448   -1.749170    2.240738
     27          1           0        0.431516    1.749203    2.240718
     28          1           0        2.780707    2.454060    2.332658
     29          1           0        5.086922    1.942921    1.712846
     30          1           0        5.480838    0.725430    0.614986
     31          1           0        3.790499   -0.645160   -0.484347
     32          1           0       -0.029180   -2.964781    0.223033
     33          1           0        0.029014    2.964965    0.223049
     34          1           0       -3.790487    0.645107   -0.484331
 ---------------------------------------------------------------------

 SCF Done:  E(RB3LYP) =  -1821.65015215     A.U. after    2 cycles

 Excitation energies and oscillator strengths:

 Excited State   1:      Singlet-A      3.9940 eV  310.42 nm  f=0.1345  <S**2>=0.000
      89 -> 90         0.69967
 This state for optimization and/or second-order correction.
 Total Energy, E(TD-HF/TD-DFT) =  -1821.50337469
 Copying the excited state density for this state as the 1-particle RhoCI density.

 Excited State   2:      Singlet-A      4.1467 eV  298.99 nm  f=0.0299  <S**2>=0.000
      88 -> 90         0.69469

 Excited State   3:      Singlet-A      4.3123 eV  287.51 nm  f=0.0357  <S**2>=0.000
      88 -> 92         0.13074
      89 -> 91         0.68308

 Excited State   4:      Singlet-A      4.4381 eV  279.36 nm  f=0.0598  <S**2>=0.000
      88 -> 91         0.68626
      89 -> 92         0.12913

 Excited State   5:      Singlet-A      4.7542 eV  260.79 nm  f=0.3961  <S**2>=0.000
      88 -> 91        -0.13057
      88 -> 93         0.12648
      89 -> 92         0.67829

 Excited State   6:      Singlet-A      4.8661 eV  254.79 nm  f=0.0006  <S**2>=0.000
      88 -> 92         0.49931
      89 -> 93         0.49297

 Excited State   7:      Singlet-A      5.0912 eV  243.52 nm  f=0.4472  <S**2>=0.000
      87 -> 90         0.11767
      88 -> 93         0.67746
      89 -> 92        -0.10415

 Excited State   8:      Singlet-A      5.1648 eV  240.06 nm  f=0.0001  <S**2>=0.000
      86 -> 90         0.22042
      87 -> 91         0.13534
      88 -> 92        -0.43818
      89 -> 91         0.12648
      89 -> 93         0.45790

 Excited State   9:      Singlet-A      5.6460 eV  219.60 nm  f=0.3844  <S**2>=0.000
      86 -> 91        -0.20450
      87 -> 90         0.66247

 Excited State  10:      Singlet-A      5.6872 eV  218.01 nm  f=0.0303  <S**2>=0.000
      86 -> 90         0.60905
      87 -> 91        -0.32128

 The electronic state is 1-A.
 Alpha  occ. eigenvalues --  -89.14382 -89.14382 -19.21346 -19.21345 -19.16536
 Alpha  occ. eigenvalues --  -19.16536 -19.16493 -19.16492 -14.35228 -14.35228
 Alpha  occ. eigenvalues --  -10.25291 -10.25291 -10.24492 -10.24492 -10.22569
 Alpha  occ. eigenvalues --  -10.22541 -10.21316 -10.21315 -10.21286 -10.21286
 Alpha  occ. eigenvalues --  -10.20678 -10.20678  -8.16708  -8.16708  -6.13310
 Alpha  occ. eigenvalues --   -6.13310  -6.13111  -6.13111  -6.12961  -6.12961
 Alpha  occ. eigenvalues --   -1.15430  -1.15386  -1.04700  -1.04682  -1.02405
 Alpha  occ. eigenvalues --   -1.02307  -0.93569  -0.93474  -0.88497  -0.85854
 Alpha  occ. eigenvalues --   -0.78545  -0.78532  -0.77930  -0.73321  -0.69730
 Alpha  occ. eigenvalues --   -0.68806  -0.63995  -0.63357  -0.62612  -0.60995
 Alpha  occ. eigenvalues --   -0.57910  -0.56506  -0.53646  -0.53223  -0.52657
 Alpha  occ. eigenvalues --   -0.52635  -0.50999  -0.49191  -0.49091  -0.48951
 Alpha  occ. eigenvalues --   -0.48808  -0.45649  -0.45322  -0.45296  -0.44773
 Alpha  occ. eigenvalues --   -0.44694  -0.44212  -0.42793  -0.40925  -0.40273
 Alpha  occ. eigenvalues --   -0.39094  -0.38770  -0.37676  -0.37364  -0.37181
 Alpha  occ. eigenvalues --   -0.36153  -0.35754  -0.34440  -0.33742  -0.33733
 Alpha  occ. eigenvalues --   -0.32562  -0.32363  -0.32356  -0.31857  -0.31717
 Alpha  occ. eigenvalues --   -0.27897  -0.27807  -0.22451  -0.21893
 Alpha virt. eigenvalues --   -0.04994  -0.03794  -0.02240  -0.01479   0.03887
 Alpha virt. eigenvalues --    0.04365   0.06167   0.07027   0.08123   0.08984
 Alpha virt. eigenvalues --    0.09048   0.09355   0.10271   0.10611   0.11796

 Mulliken charges:
               1
     1  N   -0.607326
     2  C    0.294486
     3  C   -0.121938
     4  C   -0.153676
     5  C    0.038511
     6  C    0.038534
     7  C   -0.153657
     8  C   -0.121928
     9  C    0.294484
    10  N   -0.607314
    11  C   -0.133407
    12  C   -0.231554
    13  S    1.193979
    14  O   -0.548101
    15  O   -0.565396
    16  O   -0.542276
    17  C   -0.231556
    18  S    1.193971
    19  O   -0.542280
    20  O   -0.565395
    21  O   -0.548105
    22  C   -0.133417
    23  H    0.314484
    24  H    0.313714
    25  H    0.119151
    26  H    0.133263
    27  H    0.133265
    28  H    0.119159
    29  H    0.313719
    30  H    0.314490
    31  H    0.139265
    32  H    0.356797
    33  H    0.356797
    34  H    0.139257
 Sum of Mulliken charges =  -0.00000

 Dipole moment (field-independent basis, Debye):
    X=              0.0015    Y=              0.0005    Z=             13.8705  Tot=             13.8705
 Quadrupole moment (field-independent basis, Debye-Ang):
   XX=            -69.0254   YY=           -149.1033   ZZ=           -146.1164
   XY=             39.1928   XZ=              0.0011   YZ=              0.0005

 Summary of Natural Population Analysis:

                                       Natural Population
                Natural  -----------------------------------------------
    Atom  No    Charge         Core      Valence    Rydberg      Total
 -----------------------------------------------------------------------
      N    1   -0.73041      1.99947     5.72070    0.01025     7.73041
      C    2    0.19638      1.99899     3.78625    0.01838     5.80362
      C    3   -0.29845      1.99903     4.28410    0.01532     6.29845
      C    4   -0.24662      1.99904     4.23177    0.01581     6.24662
      C    5   -0.03259      1.99890     4.01271    0.02099     6.03259
      C    6   -0.03256      1.99890     4.01268    0.02099     6.03256
      C    7   -0.24660      1.99904     4.23175    0.01581     6.24660
      C    8   -0.29843      1.99903     4.28408    0.01532     6.29843
      C    9    0.19639      1.99899     3.78625    0.01838     5.80361
      N   10   -0.73039      1.99947     5.72068    0.01025     7.73039
      C   11   -0.27104      1.99895     4.25496    0.01712     6.27104
      C   12   -0.35640      1.99861     4.32879    0.02900     6.35640
      S   13    2.39149      9.99880     3.40663    0.20307    13.60851
      O   14   -0.95422      1.99988     6.93296    0.02138     8.95422
      O   15   -0.93557      1.99987     6.92374    0.01196     8.93557
      O   16   -0.96486      1.99988     6.94356    0.02142     8.96486
      C   17   -0.35641      1.99861     4.32880    0.02900     6.35641
      S   18    2.39148      9.99880     3.40664    0.20307    13.60852
      O   19   -0.96486      1.99988     6.94356    0.02142     8.96486
      O   20   -0.93557      1.99987     6.92374    0.01196     8.93557
      O   21   -0.95422      1.99988     6.93296    0.02138     8.95422
      C   22   -0.27105      1.99895     4.25497    0.01712     6.27105
      H   23    0.43752      0.00000     0.56031    0.00217     0.56248
      H   24    0.43680      0.00000     0.56087    0.00233     0.56320
      H   25    0.25776      0.00000     0.74074    0.00150     0.74224
      H   26    0.26761      0.00000     0.73083    0.00157     0.73239
      H   27    0.26761      0.00000     0.73083    0.00157     0.73239
      H   28    0.25777      0.00000     0.74074    0.00150     0.74223
      H   29    0.43680      0.00000     0.56087    0.00233     0.56320
      H   30    0.43752      0.00000     0.56031    0.00217     0.56248
      H   31    0.27155      0.00000     0.72638    0.00207     0.72845
      H   32    0.53103      0.00000     0.46464    0.00434     0.46897
      H   33    0.53103      0.00000     0.46464    0.00434     0.46897
      H   34    0.27154      0.00000     0.72638    0.00207     0.72846
 =======================================================================
   * Total *   -0.00000     59.98287   117.21983    0.79731   178.00000

 Normal termination of Gaussian 16 at Thu Jul 18 15:28:01 2024.
