 Gaussian 16, Revision A.03,

 -------------------------------------------------------
 # opt=CalcFc B3LYP/6-31G** SCRF=(Solvent=water) scf=xqc
 -------------------------------------------------------

 ----------------------------------
 MBJAPGAZEWPEFB-UHFFFAOYSA-N_conf_3
 ----------------------------------
 Symbolic Z-matrix:
 Charge =  0 Multiplicity = 1

 SCF Done:  E(RB3LYP) =  -1821.64300000     A.U. after   13 cycles
 SCF Done:  E(RB3LYP) =  -1821.65075188     A.U. after   14 cycles
 SCF Done:  E(RB3LYP) =  -1821.63255460     A.U. after   14 cycles
 SCF Done:  E(RB3LYP) =  -1821.65494915     A.U. after   12 cycles
 SCF Done:  E(RB3LYP) =  -1821.65421918     A.U. after   13 cycles
 SCF Done:  E(RB3LYP) =  -1821.62276226     A.U. after   12 cycles
 SCF Done:  E(RB3LYP) =  -1821.62761253     A.U. after   12 cycles
 SCF Done:  E(RB3LYP) =  -1821.65537652     A.U. after   10 cycles
 SCF Done:  E(RB3LYP) =  -1821.65596076     A.U. after   11 cycles
 SCF Done:  E(RB3LYP) =  -1821.65612226     A.U. after   10 cycles
 SCF Done:  E(RB3LYP) =  -1821.65618691     A.U. after   10 cycles
 SCF Done:  E(RB3LYP) =  -1821.65619495     A.U. after    9 cycles
 SCF Done:  E(RB3LYP) =  -1821.65619724     A.U. after    8 cycles
 SCF Done:  E(RB3LYP) =  -1821.65619886     A.U. after    8 cycles
 SCF Done:  E(RB3LYP) =  -1821.65619946     A.U. after    7 cycles
 SCF Done:  E(RB3LYP) =  -1821.65619966     A.U. after    7 cycles
 SCF Done:  E(RB3LYP) =  -1821.65619970     A.U. after    5 cycles
 Optimization completed.
    -- Stationary point found.
 Normal termination of Gaussian 16 at Thu Jul 18 13:58:37 2024.

 ----------------------------------------------------------------------
 # freq B3LYP/6-31G** SCRF=(Solvent=water) volume NMR pop=NPA density=c
 urrent Geom=AllCheck Guess=Read
 ----------------------------------------------------------------------

 Structure from the checkpoint file:  "MBJAPGAZEWPEFB-UHFFFAOYSA-N_conf_3_1.chk"
 ----------------------------------
 MBJAPGAZEWPEFB-UHFFFAOYSA-N_conf_3
 ----------------------------------
 Charge =  0 Multiplicity = 1

 SCF Done:  E(RB3LYP) =  -1821.65619970     A.U. after    2 cycles

      1  N    Isotropic =   196.1026   Anisotropy =    70.9152

      2  C    Isotropic =    49.7916   Anisotropy =   160.5397

      3  C    Isotropic =    77.9556   Anisotropy =   139.0913

      4  C    Isotropic =    60.0686   Anisotropy =   158.0763

      5  C    Isotropic =    68.5476   Anisotropy =   150.8408

      6  C    Isotropic =    71.0935   Anisotropy =   145.4513

      7  C    Isotropic =    61.0794   Anisotropy =   157.5316

      8  C    Isotropic =    79.0487   Anisotropy =   137.8847

      9  C    Isotropic =    48.8766   Anisotropy =   162.0974

     10  N    Isotropic =   195.9199   Anisotropy =    70.9676

     11  C    Isotropic =    83.3128   Anisotropy =   129.4785

     12  C    Isotropic =    52.6545   Anisotropy =   108.8302

     13  S    Isotropic =   222.7522   Anisotropy =   275.1049

     14  O    Isotropic =   139.5613   Anisotropy =    52.1142

     15  O    Isotropic =   122.3162   Anisotropy =   195.8179

     16  O    Isotropic =   111.3490   Anisotropy =    37.8154

     17  C    Isotropic =    55.2180   Anisotropy =    97.3426

     18  S    Isotropic =   215.7912   Anisotropy =   219.1153

     19  O    Isotropic =   130.8716   Anisotropy =    42.7811

     20  O    Isotropic =   128.8398   Anisotropy =   215.6122

     21  O    Isotropic =   122.6963   Anisotropy =    47.5649

     22  C    Isotropic =    83.2866   Anisotropy =   130.2146

     23  H    Isotropic =    28.0668   Anisotropy =    12.1098

     24  H    Isotropic =    28.0858   Anisotropy =    12.7752

     25  H    Isotropic =    24.8777   Anisotropy =     5.4051

     26  H    Isotropic =    24.6607   Anisotropy =     9.0696

     27  H    Isotropic =    24.6557   Anisotropy =     8.6331

     28  H    Isotropic =    24.9120   Anisotropy =     5.5263

     29  H    Isotropic =    28.0816   Anisotropy =    12.1407

     30  H    Isotropic =    28.0766   Anisotropy =    12.7590

     31  H    Isotropic =    24.5829   Anisotropy =     9.5333

     32  H    Isotropic =    22.2022   Anisotropy =    22.6908

     33  H    Isotropic =    26.1366   Anisotropy =    14.5729

     34  H    Isotropic =    24.5888   Anisotropy =     9.5491

  Exact polarizability: 358.504 -30.922 219.134   0.525  -1.000 201.528
 Approx polarizability: 421.593 -27.990 263.521  -0.204  -0.227 247.398

                      1                      2                      3
                      A                      A                      A
 Frequencies --     35.5926                44.4314                51.0619
 Red. masses --      9.7471                 6.8397                 6.8426
 Frc consts  --      0.0073                 0.0080                 0.0105
 IR Inten    --      1.7238                 4.8057                 1.8582

                      4                      5                      6
                      A                      A                      A
 Frequencies --     55.7672                72.8867               116.8487
 Red. masses --      8.4679                 5.2390                 4.7990
 Frc consts  --      0.0155                 0.0164                 0.0386
 IR Inten    --      4.8016                 0.8165                 2.9815

                      7                      8                      9
                      A                      A                      A
 Frequencies --    133.2031               149.7980               154.4734
 Red. masses --      7.1755                 7.1110                 7.0806
 Frc consts  --      0.0750                 0.0940                 0.0995
 IR Inten    --      0.9252                11.3796                16.1582

                     10                     11                     12
                      A                      A                      A
 Frequencies --    181.7882               194.1840               226.4753
 Red. masses --      5.6725                 6.2417                 8.9938
 Frc consts  --      0.1104                 0.1387                 0.2718
 IR Inten    --      2.0983                 5.5196                 8.0360

                     13                     14                     15
                      A                      A                      A
 Frequencies --    239.2698               268.4390               283.7736
 Red. masses --      1.4177                 6.3264                 5.5532
 Frc consts  --      0.0478                 0.2686                 0.2635
 IR Inten    --    134.7691                 4.4205                19.1995

                     16                     17                     18
                      A                      A                      A
 Frequencies --    294.2012               313.0727               322.4092
 Red. masses --      5.5599                 6.9784                 6.7790
 Frc consts  --      0.2835                 0.4030                 0.4152
 IR Inten    --     29.2679                 1.4499                13.4574

                     19                     20                     21
                      A                      A                      A
 Frequencies --    339.3090               348.6422               357.0047
 Red. masses --      4.5538                 1.0606                 1.0595
 Frc consts  --      0.3089                 0.0760                 0.0796
 IR Inten    --     15.0276                25.3717                29.4374

                     22                     23                     24
                      A                      A                      A
 Frequencies --    385.1099               391.3291               424.9647
 Red. masses --      3.9663                 4.2059                 3.8899
 Frc consts  --      0.3466                 0.3795                 0.4139
 IR Inten    --     11.5031                 1.5956                37.0319

                     25                     26                     27
                      A                      A                      A
 Frequencies --    427.9193               434.1545               449.2126
 Red. masses --      4.3616                 6.2076                 6.8303
 Frc consts  --      0.4706                 0.6894                 0.8121
 IR Inten    --     14.4405                28.1801                32.9504

                     28                     29                     30
                      A                      A                      A
 Frequencies --    481.3260               483.5792               499.7707
 Red. masses --      4.2621                 3.5581                 1.6310
 Frc consts  --      0.5818                 0.4902                 0.2400
 IR Inten    --     85.1063               108.4980               951.5869

                     31                     32                     33
                      A                      A                      A
 Frequencies --    510.0966               532.3209               541.0026
 Red. masses --      1.6627                 4.4868                 4.8418
 Frc consts  --      0.2549                 0.7491                 0.8349
 IR Inten    --    106.6022                73.5773                28.1249

                     34                     35                     36
                      A                      A                      A
 Frequencies --    541.6927               574.3350               582.2668
 Red. masses --      6.1592                 4.7475                 9.0762
 Frc consts  --      1.0648                 0.9227                 1.8130
 IR Inten    --    133.5550                17.9615               159.3424

                     37                     38                     39
                      A                      A                      A
 Frequencies --    611.8464               617.5477               621.0469
 Red. masses --      2.1304                 2.8871                 1.9416
 Frc consts  --      0.4699                 0.6487                 0.4412
 IR Inten    --     31.6584                88.3825               189.5717

                     40                     41                     42
                      A                      A                      A
 Frequencies --    692.1069               700.3267               704.3490
 Red. masses --      5.7152                 6.4501                 6.5352
 Frc consts  --      1.6130                 1.8639                 1.9102
 IR Inten    --      3.4252                13.3341                26.5135

                     43                     44                     45
                      A                      A                      A
 Frequencies --    727.3885               731.2049               791.0754
 Red. masses --      5.0828                 4.9708                14.4309
 Frc consts  --      1.5845                 1.5659                 5.3208
 IR Inten    --      4.2630                10.9129               313.3228

                     46                     47                     48
                      A                      A                      A
 Frequencies --    809.0160               846.9302               849.5289
 Red. masses --     14.0022                 1.4906                 1.5099
 Frc consts  --      5.3996                 0.6300                 0.6420
 IR Inten    --    267.8356                50.4980                36.9052

                     49                     50                     51
                      A                      A                      A
 Frequencies --    872.5395               874.0484               913.6305
 Red. masses --      1.4115                 1.4148                 5.6169
 Frc consts  --      0.6332                 0.6368                 2.7624
 IR Inten    --     14.4100                14.8720                50.3413

                     52                     53                     54
                      A                      A                      A
 Frequencies --    920.1682               969.5797               971.5652
 Red. masses --      5.8386                 1.3164                 1.3154
 Frc consts  --      2.9127                 0.7291                 0.7316
 IR Inten    --     23.2612                 0.5928                 0.2911

                     55                     56                     57
                      A                      A                      A
 Frequencies --   1007.0528              1056.6735              1091.0878
 Red. masses --      6.9484                 3.2734                 2.0915
 Frc consts  --      4.1518                 2.1535                 1.4670
 IR Inten    --      7.6956                35.3859                34.2121

                     58                     59                     60
                      A                      A                      A
 Frequencies --   1102.5326              1110.3090              1121.5821
 Red. masses --      1.4915                 1.7282                 5.4406
 Frc consts  --      1.0682                 1.2553                 4.0323
 IR Inten    --      5.9809                21.0347               341.2869

                     61                     62                     63
                      A                      A                      A
 Frequencies --   1138.0281              1162.5451              1178.6415
 Red. masses --      6.2381                 1.3482                 1.2812
 Frc consts  --      4.7600                 1.0736                 1.0487
 IR Inten    --    283.2038               102.5870                51.0532

                     64                     65                     66
                      A                      A                      A
 Frequencies --   1179.9631              1260.0515              1272.8498
 Red. masses --      1.2884                 1.6003                 1.5739
 Frc consts  --      1.0569                 1.4971                 1.5024
 IR Inten    --     51.4588                88.9964                 0.5806

                     67                     68                     69
                      A                      A                      A
 Frequencies --   1276.9679              1301.8091              1308.3902
 Red. masses --      1.5765                 3.1558                 8.5944
 Frc consts  --      1.5146                 3.1510                 8.6684
 IR Inten    --     60.4054                17.7965               824.4988

                     70                     71                     72
                      A                      A                      A
 Frequencies --   1328.8660              1334.5819              1342.1214
 Red. masses --      3.2965                 3.1186                 3.3584
 Frc consts  --      3.4298                 3.2727                 3.5643
 IR Inten    --    307.3597               179.1405                 4.6976

                     73                     74                     75
                      A                      A                      A
 Frequencies --   1351.5787              1356.7460              1461.5478
 Red. masses --      3.3541                 3.3779                 2.7987
 Frc consts  --      3.6100                 3.6635                 3.5223
 IR Inten    --     45.7680                 2.4120                 9.9322

                     76                     77                     78
                      A                      A                      A
 Frequencies --   1465.1922              1522.8613              1553.4793
 Red. masses --      2.8683                 2.9710                 3.6762
 Frc consts  --      3.6280                 4.0595                 5.2271
 IR Inten    --      1.2743               425.7903                 1.0551

                     79                     80                     81
                      A                      A                      A
 Frequencies --   1596.1230              1597.4977              1652.3538
 Red. masses --      5.9082                 5.9806                 2.4458
 Frc consts  --      8.8683                 8.9923                 3.9344
 IR Inten    --      2.9543                 2.3312                 6.3927

                     82                     83                     84
                      A                      A                      A
 Frequencies --   1654.6094              1666.8927              1668.3736
 Red. masses --      1.9341                 1.6087                 1.9262
 Frc consts  --      3.1197                 2.6336                 3.1590
 IR Inten    --     20.3812                53.6747               616.8734

                     85                     86                     87
                      A                      A                      A
 Frequencies --   3191.7687              3191.9711              3209.7736
 Red. masses --      1.0887                 1.0888                 1.0945
 Frc consts  --      6.5348                 6.5358                 6.6437
 IR Inten    --     22.6846                 9.5572                11.0102

                     88                     89                     90
                      A                      A                      A
 Frequencies --   3210.5181              3219.1886              3225.7188
 Red. masses --      1.0944                 1.0905                 1.0908
 Frc consts  --      6.6464                 6.6585                 6.6873
 IR Inten    --     10.5234                 6.8071                 7.6793

                     91                     92                     93
                      A                      A                      A
 Frequencies --   3347.0650              3578.9902              3579.3593
 Red. masses --      1.0701                 1.0480                 1.0480
 Frc consts  --      7.0631                 7.9096                 7.9110
 IR Inten    --   1272.5865               105.3158                57.6277

                     94                     95                     96
                      A                      A                      A
 Frequencies --   3686.5667              3687.0296              3730.6572
 Red. masses --      1.1003                 1.1003                 1.0662
 Frc consts  --      8.8106                 8.8125                 8.7428
 IR Inten    --     39.5085                39.3104               206.6186

 - Thermochemistry -
 -------------------
 Temperature   298.150 Kelvin.  Pressure   1.00000 Atm.
 Atom     1 has atomic number  7 and mass  14.00307

 Molecular mass:   344.01368 amu.
 Principal axes and moments of inertia in atomic units:
                           1         2         3
     Eigenvalues --  5165.668699275.11022**********
           X            0.99969  -0.02489  -0.00056
           Y            0.02489   0.99967  -0.00568
           Z            0.00071   0.00566   0.99998
 This molecule is an asymmetric top.
 Rotational symmetry number  1.
 Warning -- assumption of classical behavior for rotation
           may cause significant error
 Rotational temperatures (Kelvin)      0.01677     0.00934     0.00864
 Rotational constants (GHZ):           0.34937     0.19458     0.18002
 Zero-point vibrational energy     637881.9 (Joules/Mol)
                                  152.45744 (Kcal/Mol)
 Warning -- explicit consideration of  38 degrees of freedom as
           vibrations may cause significant error
 Vibrational temperatures:     51.21    63.93    73.47    80.24   104.87
          (Kelvin)            168.12   191.65   215.53   222.25   261.55
                              279.39   325.85   344.26   386.22   408.29
                              423.29   450.44   463.87   488.19   501.62
                              513.65   554.09   563.04   611.43   615.68
                              624.65   646.32   692.52   695.76   719.06
                              733.92   765.89   778.38   779.37   826.34
                              837.75   880.31   888.51   893.55   995.79
                             1007.61  1013.40  1046.55  1052.04  1138.18
                             1163.99  1218.54  1222.28  1255.39  1257.56
                             1314.51  1323.92  1395.01  1397.87  1448.92
                             1520.32  1569.83  1586.30  1597.49  1613.71
                             1637.37  1672.64  1695.80  1697.70  1812.93
                             1831.35  1837.27  1873.01  1882.48  1911.94
                             1920.17  1931.01  1944.62  1952.05  2102.84
                             2108.08  2191.06  2235.11  2296.47  2298.44
                             2377.37  2380.61  2398.29  2400.42  4592.24
                             4592.53  4618.15  4619.22  4631.69  4641.09
                             4815.68  5149.37  5149.90  5304.15  5304.81
                             5367.58

 Zero-point correction=                           0.242956 (Hartree/Particle)
 Thermal correction to Energy=                    0.263572
 Thermal correction to Enthalpy=                  0.264517
 Thermal correction to Gibbs Free Energy=         0.194096
 Sum of electronic and zero-point Energies=          -1821.413243
 Sum of electronic and thermal Energies=             -1821.392627
 Sum of electronic and thermal Enthalpies=           -1821.391683
 Sum of electronic and thermal Free Energies=        -1821.462104

                     E (Thermal)             CV                S
                      KCal/Mol        Cal/Mol-Kelvin    Cal/Mol-Kelvin
 Total                  165.394             80.249            148.213
 Electronic               0.000              0.000              0.000
 Translational            0.889              2.981             43.401
 Rotational               0.889              2.981             34.529
 Vibrational            163.617             74.287             70.284
 Vibration     1          0.594              1.982              5.490
 Vibration     2          0.595              1.980              5.051
 Vibration     3          0.595              1.977              4.776
 Vibration     4          0.596              1.975              4.602
 Vibration     5          0.599              1.967              4.074
 Vibration     6          0.608              1.935              3.152
 Vibration     7          0.613              1.920              2.899
 Vibration     8          0.618              1.903              2.675
 Vibration     9          0.620              1.898              2.616
 Vibration    10          0.630              1.865              2.310
 Vibration    11          0.635              1.848              2.188
 Vibration    12          0.650              1.801              1.907
 Vibration    13          0.657              1.780              1.808
 Vibration    14          0.673              1.731              1.606
 Vibration    15          0.682              1.704              1.511
 Vibration    16          0.689              1.685              1.450
 Vibration    17          0.701              1.649              1.346
 Vibration    18          0.707              1.631              1.298
 Vibration    19          0.719              1.597              1.215
 Vibration    20          0.726              1.578              1.172
 Vibration    21          0.732              1.561              1.135
 Vibration    22          0.754              1.502              1.019
 Vibration    23          0.759              1.489              0.995
 Vibration    24          0.787              1.416              0.875
 Vibration    25          0.789              1.409              0.865
 Vibration    26          0.795              1.396              0.845
 Vibration    27          0.808              1.363              0.798
 Vibration    28          0.838              1.291              0.706
 Vibration    29          0.840              1.286              0.700
 Vibration    30          0.855              1.251              0.659
 Vibration    31          0.865              1.228              0.633
 Vibration    32          0.887              1.179              0.582
 Vibration    33          0.896              1.159              0.563
 Vibration    34          0.897              1.158              0.562
 Vibration    35          0.931              1.087              0.496
 Vibration    36          0.939              1.070              0.481
 Vibration    37          0.971              1.007              0.430
 Vibration    38          0.977              0.995              0.420

 Optimization completed.
    -- Stationary point found.
 Normal termination of Gaussian 16 at Thu Jul 18 14:35:04 2024.
 Gaussian 16:  ES64L-G16RevA.03 25-Dec-2016

 ----------------------------------------------------------------------
 # TD(NStates=10, Root=1) B3LYP/6-31G** SCRF=(Solvent=water) volume pop
 =NPA density=current Geom=AllCheck Guess=Read
 ----------------------------------------------------------------------

 Structure from the checkpoint file:  "MBJAPGAZEWPEFB-UHFFFAOYSA-N_conf_3_2.chk"
 ----------------------------------
 MBJAPGAZEWPEFB-UHFFFAOYSA-N_conf_3
 ----------------------------------
 Charge =  0 Multiplicity = 1

                         Standard orientation:
 ---------------------------------------------------------------------
 Center     Atomic      Atomic             Coordinates (Angstroms)
 Number     Number       Type             X           Y           Z
 ---------------------------------------------------------------------
      1          7           0       -4.833211    1.306473    1.217879
      2          6           0       -3.513379    0.906724    1.134065
      3          6           0       -2.525926    1.463740    1.969074
      4          6           0       -1.192374    1.104655    1.833217
      5          6           0       -0.748757    0.182729    0.871376
      6          6           0        0.699808   -0.199666    0.861153
      7          6           0        1.108454   -1.257177    1.692217
      8          6           0        2.438627   -1.624154    1.840888
      9          6           0        3.456056   -0.930298    1.159455
     10          7           0        4.778962   -1.315588    1.260292
     11          6           0        3.074957    0.134208    0.324029
     12          6           0        1.731716    0.482563    0.185888
     13         16           0        1.421444    1.811517   -0.987537
     14          8           0        2.640774    2.603876   -1.154276
     15          8           0        1.254342    1.025191   -2.391896
     16          8           0        0.171857    2.501585   -0.661848
     17          6           0       -1.754334   -0.374367    0.059463
     18         16           0       -1.388329   -1.589751   -1.201179
     19          8           0       -0.216515   -1.179728   -1.992130
     20          8           0       -0.837148   -2.885636   -0.387286
     21          8           0       -2.615733   -1.958480   -1.902342
     22          6           0       -3.102487   -0.031240    0.171700
     23          1           0       -5.522925    0.669775    0.843016
     24          1           0       -5.119439    1.718676    2.095251
     25          1           0       -2.813149    2.183474    2.730043
     26          1           0       -0.456325    1.551320    2.493674
     27          1           0        0.348460   -1.799524    2.244885
     28          1           0        2.698509   -2.449937    2.496680
     29          1           0        5.471211   -0.620075    1.018228
     30          1           0        5.028761   -1.844330    2.084721
     31          1           0        3.828730    0.697253   -0.214626
     32          1           0        0.593872    0.290450   -2.294977
     33          1           0       -1.593356   -3.390664   -0.034647
     34          1           0       -3.829252   -0.491610   -0.486916
 ---------------------------------------------------------------------

 SCF Done:  E(RB3LYP) =  -1821.65619970     A.U. after    1 cycles

 Excitation energies and oscillator strengths:

 Excited State   1:      Singlet-A      3.9998 eV  309.98 nm  f=0.1000  <S**2>=0.000
      88 -> 90        -0.12899
      89 -> 90         0.68891
 This state for optimization and/or second-order correction.
 Total Energy, E(TD-HF/TD-DFT) =  -1821.50920957
 Copying the excited state density for this state as the 1-particle RhoCI density.

 Excited State   2:      Singlet-A      4.0629 eV  305.16 nm  f=0.0624  <S**2>=0.000
      88 -> 90         0.68213
      89 -> 90         0.12158

 Excited State   3:      Singlet-A      4.3257 eV  286.62 nm  f=0.0644  <S**2>=0.000
      88 -> 91        -0.21581
      88 -> 92        -0.10751
      89 -> 91         0.64616

 Excited State   4:      Singlet-A      4.3411 eV  285.61 nm  f=0.0783  <S**2>=0.000
      88 -> 91         0.66228
      89 -> 91         0.21965

 Excited State   5:      Singlet-A      4.9784 eV  249.04 nm  f=0.2168  <S**2>=0.000
      88 -> 93        -0.16819
      89 -> 92         0.66978

 Excited State   6:      Singlet-A      5.0265 eV  246.66 nm  f=0.0267  <S**2>=0.000
      88 -> 92         0.54051
      89 -> 93        -0.43238

 Excited State   7:      Singlet-A      5.1529 eV  240.61 nm  f=0.4163  <S**2>=0.000
      86 -> 90        -0.12430
      87 -> 90        -0.13073
      88 -> 92         0.10744
      88 -> 93         0.63854
      89 -> 92         0.13990

 Excited State   8:      Singlet-A      5.2659 eV  235.45 nm  f=0.0418  <S**2>=0.000
      86 -> 90        -0.24925
      87 -> 90         0.12026
      87 -> 91        -0.17669
      88 -> 92         0.34058
      88 -> 93        -0.14682
      89 -> 91         0.10529
      89 -> 93         0.47822

 Excited State   9:      Singlet-A      5.4714 eV  226.61 nm  f=0.2108  <S**2>=0.000
      87 -> 90         0.64748
      87 -> 91         0.20370
      88 -> 93         0.10214

 Excited State  10:      Singlet-A      5.6680 eV  218.75 nm  f=0.3464  <S**2>=0.000
      86 -> 90         0.54975
      86 -> 91        -0.23190
      87 -> 90         0.14040
      87 -> 91        -0.28718
      88 -> 92         0.10169

 The electronic state is 1-A.
 Alpha  occ. eigenvalues --  -89.15728 -89.13707 -19.22391 -19.19792 -19.18138
 Alpha  occ. eigenvalues --  -19.17619 -19.15724 -19.15629 -14.35034 -14.34956
 Alpha  occ. eigenvalues --  -10.25027 -10.24870 -10.24659 -10.24037 -10.22406
 Alpha  occ. eigenvalues --  -10.22149 -10.21213 -10.20806 -10.20800 -10.20747
 Alpha  occ. eigenvalues --  -10.20352 -10.20150  -8.18035  -8.16010  -6.14629
 Alpha  occ. eigenvalues --   -6.14464  -6.14275  -6.12595  -6.12414  -6.12291
 Alpha  occ. eigenvalues --   -1.16677  -1.14559  -1.05829  -1.04009  -1.03186
 Alpha  occ. eigenvalues --   -1.01414  -0.93319  -0.93160  -0.88166  -0.85588
 Alpha  occ. eigenvalues --   -0.78648  -0.78014  -0.77583  -0.73023  -0.70322
 Alpha  occ. eigenvalues --   -0.68103  -0.63994  -0.63183  -0.62644  -0.60943
 Alpha  occ. eigenvalues --   -0.57855  -0.56983  -0.53734  -0.53155  -0.52700
 Alpha  occ. eigenvalues --   -0.52088  -0.50615  -0.50440  -0.49068  -0.48514
 Alpha  occ. eigenvalues --   -0.48013  -0.46006  -0.45245  -0.45161  -0.44801
 Alpha  occ. eigenvalues --   -0.44154  -0.42962  -0.42375  -0.40517  -0.40210
 Alpha  occ. eigenvalues --   -0.39201  -0.38568  -0.37972  -0.37122  -0.36949
 Alpha  occ. eigenvalues --   -0.36733  -0.35830  -0.34768  -0.34167  -0.33591
 Alpha  occ. eigenvalues --   -0.33306  -0.32741  -0.32323  -0.31333  -0.30369
 Alpha  occ. eigenvalues --   -0.27598  -0.27179  -0.22005  -0.21855
 Alpha virt. eigenvalues --   -0.04897  -0.03738  -0.01298  -0.00781   0.03085
 Alpha virt. eigenvalues --    0.05287   0.06398   0.07972   0.08475   0.08638
 Alpha virt. eigenvalues --    0.09018   0.09306   0.09865   0.10650   0.11205

 Mulliken charges:
               1
     1  N   -0.643753
     2  C    0.282979
     3  C   -0.168575
     4  C   -0.096261
     5  C    0.045308
     6  C    0.032734
     7  C   -0.075688
     8  C   -0.098474
     9  C    0.294014
    10  N   -0.574934
    11  C   -0.090922
    12  C   -0.236362
    13  S    1.196947
    14  O   -0.548179
    15  O   -0.582438
    16  O   -0.532455
    17  C   -0.274919
    18  S    1.183777
    19  O   -0.600777
    20  O   -0.556652
    21  O   -0.544083
    22  C   -0.160209
    23  H    0.293968
    24  H    0.293132
    25  H    0.087227
    26  H    0.101234
    27  H    0.136465
    28  H    0.141003
    29  H    0.330797
    30  H    0.330740
    31  H    0.160065
    32  H    0.390419
    33  H    0.369164
    34  H    0.114707
 Sum of Mulliken charges =   0.00000

 Dipole moment (field-independent basis, Debye):
    X=              5.1638    Y=             -7.6867    Z=             13.0687  Tot=             16.0169
 Quadrupole moment (field-independent basis, Debye-Ang):
   XX=            -68.9963   YY=           -148.9322   ZZ=           -138.7028
   XY=            -20.3887   XZ=              9.0892   YZ=             -5.5823

 Summary of Natural Population Analysis:

                                       Natural Population
                Natural  -----------------------------------------------
    Atom  No    Charge         Core      Valence    Rydberg      Total
 -----------------------------------------------------------------------
      N    1   -0.78935      1.99948     5.77883    0.01104     7.78935
      C    2    0.18415      1.99899     3.79810    0.01876     5.81585
      C    3   -0.35547      1.99904     4.34078    0.01566     6.35547
      C    4   -0.20003      1.99903     4.18664    0.01436     6.20003
      C    5   -0.09557      1.99888     4.07575    0.02094     6.09557
      C    6    0.04011      1.99891     3.94018    0.02080     5.95989
      C    7   -0.19667      1.99904     4.18300    0.01464     6.19667
      C    8   -0.24989      1.99904     4.23651    0.01433     6.24989
      C    9    0.20510      1.99898     3.77834    0.01758     5.79490
      N   10   -0.68240      1.99946     5.67360    0.00934     7.68240
      C   11   -0.22298      1.99896     4.20747    0.01655     6.22298
      C   12   -0.34210      1.99862     4.31575    0.02772     6.34210
      S   13    2.41086      9.99880     3.38557    0.20478    13.58914
      O   14   -0.96576      1.99988     6.94467    0.02121     8.96576
      O   15   -0.94425      1.99985     6.93387    0.01053     8.94425
      O   16   -0.94682      1.99988     6.92597    0.02096     8.94682
      C   17   -0.40608      1.99862     4.37955    0.02791     6.40608
      S   18    2.38547      9.99873     3.41407    0.20173    13.61453
      O   19   -1.00340      1.99984     6.98493    0.01863     9.00340
      O   20   -0.93929      1.99988     6.92701    0.01240     8.93929
      O   21   -0.96639      1.99988     6.94542    0.02110     8.96639
      C   22   -0.31271      1.99896     4.29670    0.01704     6.31271
      H   23    0.42508      0.00000     0.57259    0.00234     0.57492
      H   24    0.42412      0.00000     0.57335    0.00253     0.57588
      H   25    0.24216      0.00000     0.75637    0.00148     0.75784
      H   26    0.25080      0.00000     0.74779    0.00141     0.74920
      H   27    0.27325      0.00000     0.72536    0.00138     0.72675
      H   28    0.26730      0.00000     0.73129    0.00141     0.73270
      H   29    0.44675      0.00000     0.55130    0.00194     0.55325
      H   30    0.44679      0.00000     0.55115    0.00205     0.55321
      H   31    0.27996      0.00000     0.71797    0.00207     0.72004
      H   32    0.53874      0.00000     0.45526    0.00600     0.46126
      H   33    0.53909      0.00000     0.45765    0.00326     0.46091
      H   34    0.25944      0.00000     0.73860    0.00195     0.74056
 =======================================================================
   * Total *    0.00000     59.98275   117.23140    0.78585   178.00000

 Normal termination of Gaussian 16 at Thu Jul 18 15:39:53 2024.
