 Gaussian 16, Revision A.03,

 -------------------------------------------------------
 # opt=CalcFc B3LYP/6-31G** SCRF=(Solvent=water) scf=xqc
 -------------------------------------------------------

 ----------------------------------
 MBJAPGAZEWPEFB-UHFFFAOYSA-N_conf_0
 ----------------------------------
 Symbolic Z-matrix:
 Charge =  0 Multiplicity = 1

 SCF Done:  E(RB3LYP) =  -1821.64356942     A.U. after   13 cycles
 SCF Done:  E(RB3LYP) =  -1821.65083637     A.U. after   14 cycles
 SCF Done:  E(RB3LYP) =  -1821.63169830     A.U. after   14 cycles
 SCF Done:  E(RB3LYP) =  -1821.65481094     A.U. after   12 cycles
 SCF Done:  E(RB3LYP) =  -1821.65586258     A.U. after   11 cycles
 SCF Done:  E(RB3LYP) =  -1821.65399360     A.U. after   12 cycles
 SCF Done:  E(RB3LYP) =  -1821.65414221     A.U. after   12 cycles
 SCF Done:  E(RB3LYP) =  -1821.65609106     A.U. after    9 cycles
 SCF Done:  E(RB3LYP) =  -1821.65621717     A.U. after   11 cycles
 SCF Done:  E(RB3LYP) =  -1821.65624111     A.U. after    9 cycles
 SCF Done:  E(RB3LYP) =  -1821.65624854     A.U. after    8 cycles
 SCF Done:  E(RB3LYP) =  -1821.65625102     A.U. after    8 cycles
 SCF Done:  E(RB3LYP) =  -1821.65625123     A.U. after    7 cycles
 SCF Done:  E(RB3LYP) =  -1821.65625130     A.U. after    7 cycles
 Optimization completed.
    -- Stationary point found.
 Normal termination of Gaussian 16 at Thu Jul 18 13:04:05 2024.

 ----------------------------------------------------------------------
 # freq B3LYP/6-31G** SCRF=(Solvent=water) volume NMR pop=NPA density=c
 urrent Geom=AllCheck Guess=Read
 ----------------------------------------------------------------------

 Structure from the checkpoint file:  "MBJAPGAZEWPEFB-UHFFFAOYSA-N_conf_0_1.chk"
 ----------------------------------
 MBJAPGAZEWPEFB-UHFFFAOYSA-N_conf_0
 ----------------------------------
 Charge =  0 Multiplicity = 1

 SCF Done:  E(RB3LYP) =  -1821.65625130     A.U. after    1 cycles

      1  N    Isotropic =   195.9203   Anisotropy =    70.9724

      2  C    Isotropic =    48.8731   Anisotropy =   162.0971

      3  C    Isotropic =    79.0377   Anisotropy =   137.8938

      4  C    Isotropic =    60.9979   Anisotropy =   157.6512

      5  C    Isotropic =    71.0999   Anisotropy =   145.4280

      6  C    Isotropic =    68.5367   Anisotropy =   150.8664

      7  C    Isotropic =    60.0343   Anisotropy =   158.1265

      8  C    Isotropic =    77.9184   Anisotropy =   139.3745

      9  C    Isotropic =    49.7882   Anisotropy =   160.7157

     10  N    Isotropic =   196.1617   Anisotropy =    71.6916

     11  C    Isotropic =    83.2395   Anisotropy =   130.0497

     12  C    Isotropic =    55.2698   Anisotropy =    97.3462

     13  S    Isotropic =   215.8519   Anisotropy =   219.2031

     14  O    Isotropic =   130.9533   Anisotropy =    42.7348

     15  O    Isotropic =   128.7754   Anisotropy =   215.6677

     16  O    Isotropic =   122.7166   Anisotropy =    47.3473

     17  C    Isotropic =    52.7505   Anisotropy =   108.7229

     18  S    Isotropic =   222.7424   Anisotropy =   274.9822

     19  O    Isotropic =   111.4929   Anisotropy =    37.6617

     20  O    Isotropic =   122.3176   Anisotropy =   195.8551

     21  O    Isotropic =   139.5885   Anisotropy =    52.0880

     22  C    Isotropic =    83.3140   Anisotropy =   129.4843

     23  H    Isotropic =    28.0825   Anisotropy =    12.1266

     24  H    Isotropic =    28.0746   Anisotropy =    12.7731

     25  H    Isotropic =    24.9021   Anisotropy =     5.5072

     26  H    Isotropic =    24.6203   Anisotropy =     8.6619

     27  H    Isotropic =    24.6604   Anisotropy =     9.0624

     28  H    Isotropic =    24.8732   Anisotropy =     5.3990

     29  H    Isotropic =    28.0620   Anisotropy =    12.7014

     30  H    Isotropic =    28.0830   Anisotropy =    11.9913

     31  H    Isotropic =    24.5881   Anisotropy =     9.5497

     32  H    Isotropic =    26.1127   Anisotropy =    14.5793

     33  H    Isotropic =    22.2208   Anisotropy =    22.6680

     34  H    Isotropic =    24.5887   Anisotropy =     9.5587

  Exact polarizability: 358.435 -30.994 219.544   0.679  -0.976 201.200
 Approx polarizability: 422.197 -26.126 262.982  -1.876   0.078 247.305

                      1                      2                      3
                      A                      A                      A
 Frequencies --     35.6795                44.7130                51.3285
 Red. masses --      9.6964                 6.8653                 6.7928
 Frc consts  --      0.0073                 0.0081                 0.0105
 IR Inten    --      2.7841                 5.8718                 1.3136

                      4                      5                      6
                      A                      A                      A
 Frequencies --     55.8986                73.3709               117.4115
 Red. masses --      8.3523                 5.2962                 4.7931
 Frc consts  --      0.0154                 0.0168                 0.0389
 IR Inten    --      6.4200                 0.5002                 5.4826

                      7                      8                      9
                      A                      A                      A
 Frequencies --    133.1523               149.7563               154.5814
 Red. masses --      7.3240                 7.2636                 7.0925
 Frc consts  --      0.0765                 0.0960                 0.0999
 IR Inten    --      1.1126                 8.1516                16.9246

                     10                     11                     12
                      A                      A                      A
 Frequencies --    181.9968               193.8115               226.4877
 Red. masses --      5.4309                 6.2348                 9.3982
 Frc consts  --      0.1060                 0.1380                 0.2840
 IR Inten    --      4.4350                 8.7652                 8.3391

                     13                     14                     15
                      A                      A                      A
 Frequencies --    240.1611               268.3217               284.0940
 Red. masses --      1.4289                 6.1619                 5.5181
 Frc consts  --      0.0486                 0.2614                 0.2624
 IR Inten    --    116.8743                 5.7315                19.0465

                     16                     17                     18
                      A                      A                      A
 Frequencies --    294.0863               313.0653               322.4850
 Red. masses --      5.1613                 7.2618                 6.7681
 Frc consts  --      0.2630                 0.4193                 0.4147
 IR Inten    --     46.8469                 0.9435                12.0988

                     19                     20                     21
                      A                      A                      A
 Frequencies --    338.9687               348.6587               353.6084
 Red. masses --      4.5612                 1.0603                 1.0655
 Frc consts  --      0.3088                 0.0759                 0.0785
 IR Inten    --     19.7920                25.2223                28.4070

                     22                     23                     24
                      A                      A                      A
 Frequencies --    384.1966               390.9997               425.1747
 Red. masses --      3.9446                 4.3122                 3.8808
 Frc consts  --      0.3430                 0.3884                 0.4133
 IR Inten    --      3.7850                 9.8665                31.6727

                     25                     26                     27
                      A                      A                      A
 Frequencies --    427.4879               433.9624               449.0452
 Red. masses --      4.2612                 6.4467                 6.7105
 Frc consts  --      0.4588                 0.7153                 0.7972
 IR Inten    --     11.3593                18.7311                24.7697

                     28                     29                     30
                      A                      A                      A
 Frequencies --    480.8380               483.9050               502.3448
 Red. masses --      4.1378                 3.5574                 1.8161
 Frc consts  --      0.5637                 0.4908                 0.2700
 IR Inten    --    114.9122               236.5163               633.8569

                     31                     32                     33
                      A                      A                      A
 Frequencies --    509.7339               532.1255               540.1898
 Red. masses --      1.5130                 4.7731                 4.9879
 Frc consts  --      0.2316                 0.7963                 0.8576
 IR Inten    --    332.2273                56.3416                36.4516

                     34                     35                     36
                      A                      A                      A
 Frequencies --    542.3768               573.2593               583.1306
 Red. masses --      5.6183                 4.8923                 9.1001
 Frc consts  --      0.9738                 0.9473                 1.8232
 IR Inten    --    104.6912                25.1320               134.2233

                     37                     38                     39
                      A                      A                      A
 Frequencies --    611.6242               617.6513               621.1051
 Red. masses --      1.8802                 3.4048                 1.9523
 Frc consts  --      0.4144                 0.7653                 0.4437
 IR Inten    --     87.9105                42.2190               192.7097

                     40                     41                     42
                      A                      A                      A
 Frequencies --    692.5912               699.8458               705.1020
 Red. masses --      5.7803                 6.5018                 6.3483
 Frc consts  --      1.6336                 1.8762                 1.8596
 IR Inten    --      9.5335                17.4989                14.8812

                     43                     44                     45
                      A                      A                      A
 Frequencies --    727.2076               731.2420               791.4124
 Red. masses --      5.1257                 4.9729                14.7508
 Frc consts  --      1.5971                 1.5667                 5.4434
 IR Inten    --      1.2147                 8.6431               333.0394

                     46                     47                     48
                      A                      A                      A
 Frequencies --    808.9544               847.2278               849.9310
 Red. masses --     14.0055                 1.4961                 1.5043
 Frc consts  --      5.4000                 0.6327                 0.6403
 IR Inten    --    266.6420                53.0387                44.1230

                     49                     50                     51
                      A                      A                      A
 Frequencies --    871.8051               874.0664               913.6818
 Red. masses --      1.4120                 1.4145                 5.5636
 Frc consts  --      0.6323                 0.6367                 2.7365
 IR Inten    --     21.7235                14.9132                32.8038

                     52                     53                     54
                      A                      A                      A
 Frequencies --    920.2882               969.8159               971.9725
 Red. masses --      5.8192                 1.3153                 1.3157
 Frc consts  --      2.9038                 0.7289                 0.7324
 IR Inten    --     22.4970                 0.6489                 0.2929

                     55                     56                     57
                      A                      A                      A
 Frequencies --   1007.0546              1056.4761              1091.6816
 Red. masses --      6.9280                 3.2748                 2.1180
 Frc consts  --      4.1396                 2.1536                 1.4872
 IR Inten    --      6.5907                29.3101                35.7810

                     58                     59                     60
                      A                      A                      A
 Frequencies --   1103.0427              1110.2305              1121.5680
 Red. masses --      1.5042                 1.6905                 5.4352
 Frc consts  --      1.0783                 1.2277                 4.0282
 IR Inten    --     10.1041                13.9846               346.7974

                     61                     62                     63
                      A                      A                      A
 Frequencies --   1137.9880              1162.5958              1177.6850
 Red. masses --      6.2703                 1.3469                 1.2771
 Frc consts  --      4.7843                 1.0726                 1.0436
 IR Inten    --    282.4360               101.5468                54.8348

                     64                     65                     66
                      A                      A                      A
 Frequencies --   1180.0206              1259.9879              1272.4848
 Red. masses --      1.2880                 1.6003                 1.5783
 Frc consts  --      1.0567                 1.4969                 1.5058
 IR Inten    --     50.4351                87.8200                 0.7373

                     67                     68                     69
                      A                      A                      A
 Frequencies --   1276.8658              1301.8583              1308.4026
 Red. masses --      1.5768                 3.1532                 8.6223
 Frc consts  --      1.5147                 3.1487                 8.6967
 IR Inten    --     61.0473                15.9980               824.6671

                     70                     71                     72
                      A                      A                      A
 Frequencies --   1328.8577              1334.4005              1342.0203
 Red. masses --      3.2950                 3.1066                 3.3533
 Frc consts  --      3.4282                 3.2592                 3.5583
 IR Inten    --    304.5577               177.1230                 5.7736

                     73                     74                     75
                      A                      A                      A
 Frequencies --   1351.6288              1356.8267              1460.8856
 Red. masses --      3.3507                 3.4006                 2.8207
 Frc consts  --      3.6066                 3.6886                 3.5468
 IR Inten    --     45.4991                 2.4429                 8.8532

                     76                     77                     78
                      A                      A                      A
 Frequencies --   1465.0299              1522.7911              1553.3960
 Red. masses --      2.8690                 2.9748                 3.6774
 Frc consts  --      3.6281                 4.0644                 5.2282
 IR Inten    --      1.9476               427.4500                 0.9353

                     79                     80                     81
                      A                      A                      A
 Frequencies --   1596.3354              1597.5461              1652.1945
 Red. masses --      5.8852                 5.9839                 2.4348
 Frc consts  --      8.8360                 8.9979                 3.9160
 IR Inten    --      3.6071                 1.7194                 6.6123

                     82                     83                     84
                      A                      A                      A
 Frequencies --   1654.1426              1666.9914              1668.6161
 Red. masses --      1.9313                 1.6112                 1.9320
 Frc consts  --      3.1135                 2.6379                 3.1693
 IR Inten    --     21.6704                62.6997               603.0606

                     85                     86                     87
                      A                      A                      A
 Frequencies --   3192.0170              3192.3512              3209.9916
 Red. masses --      1.0888                 1.0886                 1.0946
 Frc consts  --      6.5361                 6.5367                 6.6450
 IR Inten    --     20.6173                11.8717                11.2497

                     88                     89                     90
                      A                      A                      A
 Frequencies --   3210.6045              3219.1382              3227.4386
 Red. masses --      1.0944                 1.0905                 1.0906
 Frc consts  --      6.6468                 6.6583                 6.6934
 IR Inten    --     10.5283                 6.8210                 7.6558

                     91                     92                     93
                      A                      A                      A
 Frequencies --   3347.1296              3579.1053              3579.2992
 Red. masses --      1.0701                 1.0481                 1.0480
 Frc consts  --      7.0634                 7.9102                 7.9109
 IR Inten    --   1272.4122               132.5547                31.0281

                     94                     95                     96
                      A                      A                      A
 Frequencies --   3686.4304              3686.9214              3730.5470
 Red. masses --      1.1002                 1.1003                 1.0662
 Frc consts  --      8.8089                 8.8119                 8.7423
 IR Inten    --     40.2655                39.2664               207.1515

 - Thermochemistry -
 -------------------
 Temperature   298.150 Kelvin.  Pressure   1.00000 Atm.
 Atom     1 has atomic number  7 and mass  14.00307

 Molecular mass:   344.01368 amu.
 Principal axes and moments of inertia in atomic units:
                           1         2         3
     Eigenvalues --  5165.433979282.79120**********
           X            0.99961  -0.02793   0.00211
           Y            0.02794   0.99959  -0.00552
           Z           -0.00196   0.00558   0.99998
 This molecule is an asymmetric top.
 Rotational symmetry number  1.
 Warning -- assumption of classical behavior for rotation
           may cause significant error
 Rotational temperatures (Kelvin)      0.01677     0.00933     0.00864
 Rotational constants (GHZ):           0.34939     0.19442     0.18002
 Zero-point vibrational energy     637887.8 (Joules/Mol)
                                  152.45884 (Kcal/Mol)
 Warning -- explicit consideration of  38 degrees of freedom as
           vibrations may cause significant error
 Vibrational temperatures:     51.33    64.33    73.85    80.43   105.56
          (Kelvin)            168.93   191.58   215.47   222.41   261.85
                              278.85   325.87   345.54   386.06   408.75
                              423.12   450.43   463.98   487.70   501.64
                              508.76   552.77   562.56   611.73   615.06
                              624.38   646.08   691.82   696.23   722.76
                              733.39   765.61   777.21   780.36   824.79
                              838.99   879.99   888.66   893.63   996.48
                             1006.92  1014.48  1046.29  1052.09  1138.67
                             1163.90  1218.97  1222.86  1254.33  1257.59
                             1314.58  1324.09  1395.35  1398.45  1448.93
                             1520.03  1570.69  1587.03  1597.37  1613.69
                             1637.31  1672.72  1694.43  1697.79  1812.84
                             1830.82  1837.13  1873.08  1882.50  1911.93
                             1919.90  1930.87  1944.69  1952.17  2101.89
                             2107.85  2190.96  2234.99  2296.77  2298.51
                             2377.14  2379.94  2398.43  2400.77  4592.60
                             4593.08  4618.46  4619.34  4631.62  4643.56
                             4815.77  5149.53  5149.81  5303.95  5304.66
                             5367.43

 Zero-point correction=                           0.242959 (Hartree/Particle)
 Thermal correction to Energy=                    0.263574
 Thermal correction to Enthalpy=                  0.264518
 Thermal correction to Gibbs Free Energy=         0.194117
 Sum of electronic and zero-point Energies=          -1821.413293
 Sum of electronic and thermal Energies=             -1821.392677
 Sum of electronic and thermal Enthalpies=           -1821.391733
 Sum of electronic and thermal Free Energies=        -1821.462134

                     E (Thermal)             CV                S
                      KCal/Mol        Cal/Mol-Kelvin    Cal/Mol-Kelvin
 Total                  165.395             80.253            148.171
 Electronic               0.000              0.000              0.000
 Translational            0.889              2.981             43.401
 Rotational               0.889              2.981             34.529
 Vibrational            163.618             74.291             70.241
 Vibration     1          0.594              1.982              5.486
 Vibration     2          0.595              1.980              5.039
 Vibration     3          0.596              1.977              4.766
 Vibration     4          0.596              1.975              4.597
 Vibration     5          0.599              1.967              4.061
 Vibration     6          0.608              1.935              3.143
 Vibration     7          0.613              1.920              2.900
 Vibration     8          0.618              1.903              2.675
 Vibration     9          0.620              1.898              2.615
 Vibration    10          0.630              1.864              2.308
 Vibration    11          0.635              1.848              2.191
 Vibration    12          0.650              1.801              1.907
 Vibration    13          0.657              1.779              1.802
 Vibration    14          0.673              1.731              1.607
 Vibration    15          0.683              1.703              1.509
 Vibration    16          0.689              1.685              1.450
 Vibration    17          0.701              1.649              1.346
 Vibration    18          0.707              1.630              1.297
 Vibration    19          0.719              1.598              1.217
 Vibration    20          0.726              1.578              1.172
 Vibration    21          0.730              1.568              1.150
 Vibration    22          0.753              1.504              1.023
 Vibration    23          0.759              1.489              0.996
 Vibration    24          0.787              1.415              0.875
 Vibration    25          0.789              1.410              0.867
 Vibration    26          0.795              1.396              0.846
 Vibration    27          0.808              1.363              0.799
 Vibration    28          0.837              1.293              0.708
 Vibration    29          0.840              1.286              0.700
 Vibration    30          0.858              1.245              0.652
 Vibration    31          0.865              1.228              0.634
 Vibration    32          0.887              1.179              0.582
 Vibration    33          0.895              1.161              0.565
 Vibration    34          0.897              1.156              0.560
 Vibration    35          0.930              1.089              0.498
 Vibration    36          0.940              1.068              0.480
 Vibration    37          0.971              1.007              0.430
 Vibration    38          0.977              0.995              0.420

                           ! Non-Optimized Parameters !
 Normal termination of Gaussian 16 at Thu Jul 18 13:38:05 2024.
 Gaussian 16:  ES64L-G16RevA.03 25-Dec-2016

 ----------------------------------------------------------------------
 # TD(NStates=10, Root=1) B3LYP/6-31G** SCRF=(Solvent=water) volume pop
 =NPA density=current Geom=AllCheck Guess=Read
 ----------------------------------------------------------------------

 Structure from the checkpoint file:  "MBJAPGAZEWPEFB-UHFFFAOYSA-N_conf_0_2.chk"
 ----------------------------------
 MBJAPGAZEWPEFB-UHFFFAOYSA-N_conf_0
 ----------------------------------
 Charge =  0 Multiplicity = 1

                         Standard orientation:
 ---------------------------------------------------------------------
 Center     Atomic      Atomic             Coordinates (Angstroms)
 Number     Number       Type             X           Y           Z
 ---------------------------------------------------------------------
      1          7           0        4.782587   -1.308970    1.256496
      2          6           0        3.458915   -0.926032    1.156501
      3          6           0        2.443192   -1.621787    1.838535
      4          6           0        1.112294   -1.256979    1.691040
      5          6           0        0.701235   -0.199898    0.860613
      6          6           0       -0.747807    0.180565    0.873247
      7          6           0       -1.189875    1.105997    1.832431
      8          6           0       -2.523435    1.464092    1.970611
      9          6           0       -3.512505    0.901968    1.141001
     10          7           0       -4.849395    1.209628    1.307165
     11          6           0       -3.102381   -0.035262    0.177705
     12          6           0       -1.754488   -0.379205    0.064623
     13         16           0       -1.389119   -1.592529   -1.198223
     14          8           0       -0.218852   -1.181012   -1.990663
     15          8           0       -0.835596   -2.888460   -0.386074
     16          8           0       -2.617318   -1.961834   -1.897677
     17          6           0        1.731401    0.483938    0.184325
     18         16           0        1.417953    1.811642   -0.989658
     19          8           0        0.167627    2.500107   -0.663352
     20          8           0        1.250534    1.023975   -2.393267
     21          8           0        2.635884    2.605746   -1.158283
     22          6           0        3.075338    0.137744    0.321279
     23          1           0        5.473392   -0.612047    1.014342
     24          1           0        5.033722   -1.837186    2.080865
     25          1           0        2.704993   -2.447186    2.494045
     26          1           0        0.353650   -1.800503    2.244403
     27          1           0       -0.451892    1.559766    2.485834
     28          1           0       -2.809090    2.185987    2.730011
     29          1           0       -5.051418    2.090106    1.760760
     30          1           0       -5.453490    1.031804    0.516542
     31          1           0       -3.830727   -0.497084   -0.478091
     32          1           0       -1.590795   -3.393844   -0.031767
     33          1           0        0.590718    0.288829   -2.295239
     34          1           0        3.827713    0.701897   -0.218173
 ---------------------------------------------------------------------

 SCF Done:  E(RB3LYP) =  -1821.65625130     A.U. after    1 cycles

 Excitation energies and oscillator strengths:

 Excited State   1:      Singlet-A      3.9939 eV  310.44 nm  f=0.1041  <S**2>=0.000
      88 -> 90         0.10909
      89 -> 90         0.69228
 This state for optimization and/or second-order correction.
 Total Energy, E(TD-HF/TD-DFT) =  -1821.50947910
 Copying the excited state density for this state as the 1-particle RhoCI density.

 Excited State   2:      Singlet-A      4.0670 eV  304.85 nm  f=0.0588  <S**2>=0.000
      88 -> 90         0.68543
      89 -> 90        -0.10178

 Excited State   3:      Singlet-A      4.3229 eV  286.81 nm  f=0.0548  <S**2>=0.000
      88 -> 91         0.13679
      88 -> 92         0.10985
      89 -> 91         0.66755

 Excited State   4:      Singlet-A      4.3472 eV  285.20 nm  f=0.0863  <S**2>=0.000
      88 -> 91         0.68286
      89 -> 91        -0.14233

 Excited State   5:      Singlet-A      4.9735 eV  249.29 nm  f=0.2303  <S**2>=0.000
      88 -> 93         0.15878
      89 -> 92         0.67327

 Excited State   6:      Singlet-A      5.0280 eV  246.59 nm  f=0.0246  <S**2>=0.000
      88 -> 92         0.53661
      89 -> 93         0.43979

 Excited State   7:      Singlet-A      5.1587 eV  240.34 nm  f=0.3999  <S**2>=0.000
      86 -> 90         0.12604
      87 -> 90         0.13223
      88 -> 92         0.11129
      88 -> 93         0.64034
      89 -> 92        -0.12843

 Excited State   8:      Singlet-A      5.2654 eV  235.47 nm  f=0.0427  <S**2>=0.000
      86 -> 90        -0.25056
      87 -> 90         0.12258
      87 -> 91        -0.17591
      88 -> 92        -0.34720
      88 -> 93         0.14702
      89 -> 91         0.10540
      89 -> 93         0.47238

 Excited State   9:      Singlet-A      5.4705 eV  226.64 nm  f=0.2142  <S**2>=0.000
      87 -> 90         0.64665
      87 -> 91         0.20398
      88 -> 93        -0.10477

 Excited State  10:      Singlet-A      5.6668 eV  218.79 nm  f=0.3467  <S**2>=0.000
      86 -> 90         0.54967
      86 -> 91        -0.23205
      87 -> 90         0.14036
      87 -> 91        -0.28668
      88 -> 92        -0.10435

 The electronic state is 1-A.
 Alpha  occ. eigenvalues --  -89.15729 -89.13712 -19.22389 -19.19795 -19.18140
 Alpha  occ. eigenvalues --  -19.17618 -19.15730 -19.15634 -14.35025 -14.34956
 Alpha  occ. eigenvalues --  -10.25022 -10.24870 -10.24659 -10.24039 -10.22408
 Alpha  occ. eigenvalues --  -10.22151 -10.21211 -10.20805 -10.20801 -10.20747
 Alpha  occ. eigenvalues --  -10.20351 -10.20150  -8.18036  -8.16015  -6.14629
 Alpha  occ. eigenvalues --   -6.14464  -6.14276  -6.12600  -6.12419  -6.12295
 Alpha  occ. eigenvalues --   -1.16678  -1.14563  -1.05828  -1.04011  -1.03188
 Alpha  occ. eigenvalues --   -1.01419  -0.93312  -0.93159  -0.88166  -0.85588
 Alpha  occ. eigenvalues --   -0.78648  -0.78016  -0.77583  -0.73022  -0.70324
 Alpha  occ. eigenvalues --   -0.68106  -0.63993  -0.63178  -0.62649  -0.60943
 Alpha  occ. eigenvalues --   -0.57854  -0.56974  -0.53741  -0.53150  -0.52697
 Alpha  occ. eigenvalues --   -0.52094  -0.50609  -0.50426  -0.49070  -0.48520
 Alpha  occ. eigenvalues --   -0.48011  -0.45991  -0.45247  -0.45159  -0.44816
 Alpha  occ. eigenvalues --   -0.44133  -0.43004  -0.42421  -0.40419  -0.40197
 Alpha  occ. eigenvalues --   -0.39150  -0.38583  -0.38036  -0.37175  -0.36829
 Alpha  occ. eigenvalues --   -0.36745  -0.35831  -0.34829  -0.34226  -0.33619
 Alpha  occ. eigenvalues --   -0.33314  -0.32733  -0.32271  -0.31324  -0.30368
 Alpha  occ. eigenvalues --   -0.27598  -0.27180  -0.22028  -0.21840
 Alpha virt. eigenvalues --   -0.04904  -0.03736  -0.01303  -0.00778   0.03082
 Alpha virt. eigenvalues --    0.05296   0.06455   0.07949   0.08363   0.08630
 Alpha virt. eigenvalues --    0.08952   0.09427   0.09884   0.10648   0.11188

 Mulliken charges:
               1
     1  N   -0.578222
     2  C    0.293840
     3  C   -0.100072
     4  C   -0.076012
     5  C    0.031345
     6  C    0.046376
     7  C   -0.095730
     8  C   -0.166924
     9  C    0.282485
    10  N   -0.640266
    11  C   -0.158295
    12  C   -0.274647
    13  S    1.185067
    14  O   -0.600281
    15  O   -0.556447
    16  O   -0.543748
    17  C   -0.236959
    18  S    1.196342
    19  O   -0.533098
    20  O   -0.582658
    21  O   -0.548408
    22  C   -0.092711
    23  H    0.329265
    24  H    0.329211
    25  H    0.139655
    26  H    0.135674
    27  H    0.102078
    28  H    0.088976
    29  H    0.294437
    30  H    0.295559
    31  H    0.115734
    32  H    0.369275
    33  H    0.390366
    34  H    0.158791
 Sum of Mulliken charges =  -0.00000

 Dipole moment (field-independent basis, Debye):
    X=              4.9407    Y=             -5.9480    Z=             11.6143  Tot=             13.9528
 Quadrupole moment (field-independent basis, Debye-Ang):
   XX=            -72.0894   YY=           -144.4256   ZZ=           -142.5542
   XY=            -28.4974   XZ=             16.6473   YZ=             -5.1967

 Summary of Natural Population Analysis:

                                       Natural Population
                Natural  -----------------------------------------------
    Atom  No    Charge         Core      Valence    Rydberg      Total
 -----------------------------------------------------------------------
      N    1   -0.68788      1.99946     5.67899    0.00943     7.68788
      C    2    0.20465      1.99898     3.77876    0.01760     5.79535
      C    3   -0.25220      1.99904     4.23884    0.01433     6.25220
      C    4   -0.19638      1.99904     4.18272    0.01462     6.19638
      C    5    0.03468      1.99891     3.94560    0.02081     5.96532
      C    6   -0.09065      1.99888     4.07081    0.02096     6.09065
      C    7   -0.19999      1.99903     4.18658    0.01438     6.19999
      C    8   -0.35345      1.99904     4.33870    0.01571     6.35345
      C    9    0.18419      1.99899     3.79809    0.01873     5.81581
      N   10   -0.78361      1.99948     5.77310    0.01103     7.78361
      C   11   -0.31022      1.99896     4.29418    0.01708     6.31022
      C   12   -0.40548      1.99862     4.37894    0.02793     6.40548
      S   13    2.38578      9.99873     3.41379    0.20170    13.61422
      O   14   -1.00285      1.99984     6.98438    0.01863     9.00285
      O   15   -0.93891      1.99988     6.92662    0.01241     8.93891
      O   16   -0.96605      1.99988     6.94506    0.02110     8.96605
      C   17   -0.34234      1.99862     4.31602    0.02770     6.34234
      S   18    2.41074      9.99879     3.38568    0.20478    13.58926
      O   19   -0.94740      1.99988     6.92656    0.02096     8.94740
      O   20   -0.94450      1.99985     6.93411    0.01054     8.94450
      O   21   -0.96601      1.99988     6.94492    0.02120     8.96601
      C   22   -0.22542      1.99896     4.20992    0.01654     6.22542
      H   23    0.44591      0.00000     0.55213    0.00196     0.55409
      H   24    0.44594      0.00000     0.55199    0.00208     0.55406
      H   25    0.26670      0.00000     0.73189    0.00141     0.73330
      H   26    0.27277      0.00000     0.72584    0.00139     0.72723
      H   27    0.25139      0.00000     0.74720    0.00141     0.74861
      H   28    0.24318      0.00000     0.75535    0.00146     0.75682
      H   29    0.42472      0.00000     0.57271    0.00257     0.57528
      H   30    0.42573      0.00000     0.57193    0.00234     0.57427
      H   31    0.25973      0.00000     0.73829    0.00197     0.74027
      H   32    0.53917      0.00000     0.45756    0.00326     0.46083
      H   33    0.53867      0.00000     0.45534    0.00599     0.46133
      H   34    0.27940      0.00000     0.71852    0.00208     0.72060
 =======================================================================
   * Total *   -0.00000     59.98276   117.23114    0.78610   178.00000

 Normal termination of Gaussian 16 at Thu Jul 18 14:12:38 2024.
