 Gaussian 16, Revision A.03,

 -------------------------------------------------------
 # opt=CalcFc B3LYP/6-31G** SCRF=(Solvent=water) scf=xqc
 -------------------------------------------------------

 ----------------------------------
 MBJAPGAZEWPEFB-UHFFFAOYSA-N_conf_2
 ----------------------------------
 Symbolic Z-matrix:
 Charge =  0 Multiplicity = 1

 SCF Done:  E(RB3LYP) =  -1821.63784956     A.U. after   13 cycles
 SCF Done:  E(RB3LYP) =  -1821.64955778     A.U. after   11 cycles
 SCF Done:  E(RB3LYP) =  -1821.65173752     A.U. after   12 cycles
 SCF Done:  E(RB3LYP) =  -1821.65192558     A.U. after   11 cycles
 SCF Done:  E(RB3LYP) =  -1821.65202415     A.U. after   11 cycles
 SCF Done:  E(RB3LYP) =  -1821.65213452     A.U. after   10 cycles
 SCF Done:  E(RB3LYP) =  -1821.65213860     A.U. after    8 cycles
 SCF Done:  E(RB3LYP) =  -1821.65213911     A.U. after    8 cycles
 SCF Done:  E(RB3LYP) =  -1821.65213924     A.U. after    7 cycles
 SCF Done:  E(RB3LYP) =  -1821.65213945     A.U. after    8 cycles
 Optimization completed.
    -- Stationary point found.
 Normal termination of Gaussian 16 at Thu Jul 18 13:42:39 2024.

 ----------------------------------------------------------------------
 # freq B3LYP/6-31G** SCRF=(Solvent=water) volume NMR pop=NPA density=c
 urrent Geom=AllCheck Guess=Read
 ----------------------------------------------------------------------

 Structure from the checkpoint file:  "MBJAPGAZEWPEFB-UHFFFAOYSA-N_conf_2_1.chk"
 ----------------------------------
 MBJAPGAZEWPEFB-UHFFFAOYSA-N_conf_2
 ----------------------------------
 Charge =  0 Multiplicity = 1

 SCF Done:  E(RB3LYP) =  -1821.65213945     A.U. after    1 cycles

      1  N    Isotropic =   195.6096   Anisotropy =    71.3224

      2  C    Isotropic =    49.4157   Anisotropy =   161.0212

      3  C    Isotropic =    78.4152   Anisotropy =   138.8977

      4  C    Isotropic =    60.4106   Anisotropy =   160.5234

      5  C    Isotropic =    70.2529   Anisotropy =   147.9623

      6  C    Isotropic =    72.7992   Anisotropy =   143.3213

      7  C    Isotropic =    59.6203   Anisotropy =   161.6397

      8  C    Isotropic =    79.3643   Anisotropy =   137.3028

      9  C    Isotropic =    49.0943   Anisotropy =   161.8691

     10  N    Isotropic =   195.4227   Anisotropy =    70.9543

     11  C    Isotropic =    83.0459   Anisotropy =   131.2654

     12  C    Isotropic =    51.8558   Anisotropy =   104.8828

     13  S    Isotropic =   222.2060   Anisotropy =   259.8980

     14  O    Isotropic =   118.4876   Anisotropy =    52.6315

     15  O    Isotropic =   137.1987   Anisotropy =   191.6668

     16  O    Isotropic =   112.9548   Anisotropy =    56.4967

     17  C    Isotropic =    53.9234   Anisotropy =    97.0070

     18  S    Isotropic =   212.1883   Anisotropy =   248.0878

     19  O    Isotropic =    93.6935   Anisotropy =    47.2291

     20  O    Isotropic =   126.5400   Anisotropy =   243.0445

     21  O    Isotropic =   113.1430   Anisotropy =    54.7140

     22  C    Isotropic =    82.0511   Anisotropy =   131.5709

     23  H    Isotropic =    28.0396   Anisotropy =    11.9888

     24  H    Isotropic =    28.0226   Anisotropy =    12.6320

     25  H    Isotropic =    24.8507   Anisotropy =     5.4687

     26  H    Isotropic =    24.4951   Anisotropy =     8.4636

     27  H    Isotropic =    24.4750   Anisotropy =     8.5833

     28  H    Isotropic =    24.8920   Anisotropy =     5.3651

     29  H    Isotropic =    28.0532   Anisotropy =    12.1126

     30  H    Isotropic =    28.0521   Anisotropy =    12.7653

     31  H    Isotropic =    24.6149   Anisotropy =     9.5909

     32  H    Isotropic =    23.9158   Anisotropy =    17.9153

     33  H    Isotropic =    26.6677   Anisotropy =     9.3493

     34  H    Isotropic =    24.5622   Anisotropy =     9.4630

  Exact polarizability: 360.658  38.338 233.464  -0.159  -0.761 187.284
 Approx polarizability: 419.400  36.446 283.612  -0.703  -0.900 236.443

                      1                      2                      3
                      A                      A                      A
 Frequencies --     30.8476                43.7643                51.9109
 Red. masses --      7.4493                 6.8926                 5.6254
 Frc consts  --      0.0042                 0.0078                 0.0089
 IR Inten    --     12.5885                 9.4388                 2.2839

                      4                      5                      6
                      A                      A                      A
 Frequencies --     59.0110                72.7197               122.5650
 Red. masses --      7.1453                 6.1543                 5.0991
 Frc consts  --      0.0147                 0.0192                 0.0451
 IR Inten    --      6.3513                 2.3064                 1.8094

                      7                      8                      9
                      A                      A                      A
 Frequencies --    128.9178               137.5894               155.2860
 Red. masses --      7.2664                 6.7832                 7.2512
 Frc consts  --      0.0712                 0.0757                 0.1030
 IR Inten    --      8.1047                 7.6842                 6.3267

                     10                     11                     12
                      A                      A                      A
 Frequencies --    183.1011               191.6107               209.6553
 Red. masses --      5.8510                 5.7784                 2.6042
 Frc consts  --      0.1156                 0.1250                 0.0674
 IR Inten    --      5.2140                 8.1386                99.9768

                     13                     14                     15
                      A                      A                      A
 Frequencies --    233.4981               269.1438               282.0408
 Red. masses --      4.8230                 5.7420                 5.8200
 Frc consts  --      0.1549                 0.2451                 0.2728
 IR Inten    --     20.1101                 0.7697                23.7740

                     16                     17                     18
                      A                      A                      A
 Frequencies --    294.9189               313.0148               324.3727
 Red. masses --      3.2862                 4.9888                 6.5652
 Frc consts  --      0.1684                 0.2880                 0.4070
 IR Inten    --     69.2815                10.5700                13.1304

                     19                     20                     21
                      A                      A                      A
 Frequencies --    331.6766               350.4668               358.0719
 Red. masses --      3.6982                 1.0648                 1.0566
 Frc consts  --      0.2397                 0.0771                 0.0798
 IR Inten    --     35.3920                28.8069                29.4130

                     22                     23                     24
                      A                      A                      A
 Frequencies --    386.3595               387.4021               400.2147
 Red. masses --      3.7894                 4.0836                 5.0451
 Frc consts  --      0.3333                 0.3611                 0.4761
 IR Inten    --      9.5943                13.6369                27.9122

                     25                     26                     27
                      A                      A                      A
 Frequencies --    413.1978               432.0374               447.1579
 Red. masses --      4.7720                 3.9006                 3.4573
 Frc consts  --      0.4800                 0.4290                 0.4073
 IR Inten    --     97.3873                46.1114                65.9270

                     28                     29                     30
                      A                      A                      A
 Frequencies --    467.3106               479.7541               493.6378
 Red. masses --      3.2033                 3.1960                 1.6601
 Frc consts  --      0.4122                 0.4334                 0.2383
 IR Inten    --    261.9465               166.1372               854.5078

                     31                     32                     33
                      A                      A                      A
 Frequencies --    500.6203               522.3301               528.0666
 Red. masses --      1.5531                 2.5591                 4.5838
 Frc consts  --      0.2293                 0.4114                 0.7531
 IR Inten    --    115.5775                56.9307                59.6966

                     34                     35                     36
                      A                      A                      A
 Frequencies --    537.9488               539.8818               573.7818
 Red. masses --      4.3115                 5.4527                 8.5697
 Frc consts  --      0.7351                 0.9364                 1.6623
 IR Inten    --    137.0446                64.3748               102.1912

                     37                     38                     39
                      A                      A                      A
 Frequencies --    588.0548               615.5443               617.4555
 Red. masses --      6.1842                 3.4337                 3.6161
 Frc consts  --      1.2600                 0.7665                 0.8123
 IR Inten    --    140.3266                 5.3271                24.7992

                     40                     41                     42
                      A                      A                      A
 Frequencies --    689.5844               697.5151               701.7358
 Red. masses --      6.1805                 6.8723                 5.8333
 Frc consts  --      1.7316                 1.9700                 1.6924
 IR Inten    --     14.4708                46.8197                 6.7918

                     43                     44                     45
                      A                      A                      A
 Frequencies --    723.0909               725.2347               737.2065
 Red. masses --      5.7611                 5.0642                 7.9806
 Frc consts  --      1.7748                 1.5693                 2.5554
 IR Inten    --     93.5297                12.4693               167.2550

                     46                     47                     48
                      A                      A                      A
 Frequencies --    802.7218               844.6019               848.9793
 Red. masses --     14.3912                 1.4762                 1.5128
 Frc consts  --      5.4636                 0.6204                 0.6424
 IR Inten    --    282.1459                52.4420                31.6605

                     49                     50                     51
                      A                      A                      A
 Frequencies --    870.9105               876.8333               911.1093
 Red. masses --      1.4368                 1.4139                 5.6400
 Frc consts  --      0.6421                 0.6405                 2.7585
 IR Inten    --     18.6253                18.5730                21.6313

                     52                     53                     54
                      A                      A                      A
 Frequencies --    921.1560               967.2800               969.2428
 Red. masses --      5.8273                 1.3172                 1.3205
 Frc consts  --      2.9133                 0.7261                 0.7309
 IR Inten    --     35.2459                 0.8747                 0.1885

                     55                     56                     57
                      A                      A                      A
 Frequencies --   1006.9577              1056.7394              1088.3300
 Red. masses --      6.8115                 3.1767                 2.2609
 Frc consts  --      4.0693                 2.0900                 1.5778
 IR Inten    --     18.5357                 3.5968                59.4045

                     58                     59                     60
                      A                      A                      A
 Frequencies --   1102.1492              1106.0861              1120.5266
 Red. masses --      1.4703                 1.7264                 2.0180
 Frc consts  --      1.0523                 1.2444                 1.4929
 IR Inten    --      1.8130                26.3335               141.1702

                     61                     62                     63
                      A                      A                      A
 Frequencies --   1133.0712              1160.8941              1177.5418
 Red. masses --      6.0552                 1.9715                 1.3197
 Frc consts  --      4.5803                 1.5654                 1.0782
 IR Inten    --    120.9276               404.5402                92.8662

                     64                     65                     66
                      A                      A                      A
 Frequencies --   1180.0125              1230.8869              1272.8161
 Red. masses --      1.2698                 1.3446                 1.6065
 Frc consts  --      1.0417                 1.2003                 1.5334
 IR Inten    --     23.0964               173.6709                 2.1251

                     67                     68                     69
                      A                      A                      A
 Frequencies --   1274.3114              1310.3451              1313.8662
 Red. masses --      1.5778                 6.9625                 2.8549
 Frc consts  --      1.5095                 7.0435                 2.9036
 IR Inten    --     36.2806               421.1906                19.8292

                     70                     71                     72
                      A                      A                      A
 Frequencies --   1328.0081              1332.7060              1343.5106
 Red. masses --      8.3005                 3.5789                 3.6649
 Frc consts  --      8.6249                 3.7451                 3.8976
 IR Inten    --    431.0930               186.3305                 1.8601

                     73                     74                     75
                      A                      A                      A
 Frequencies --   1352.7001              1356.0492              1460.6709
 Red. masses --      3.0757                 3.4051                 2.8387
 Frc consts  --      3.3159                 3.6892                 3.5684
 IR Inten    --     67.6478                 8.6060                 7.4845

                     76                     77                     78
                      A                      A                      A
 Frequencies --   1467.0594              1521.4344              1553.0346
 Red. masses --      2.9361                 3.0139                 3.7886
 Frc consts  --      3.7232                 4.1104                 5.3838
 IR Inten    --      0.3425               419.7326                 0.1885

                     79                     80                     81
                      A                      A                      A
 Frequencies --   1595.5526              1599.2569              1650.8957
 Red. masses --      5.6865                 5.8132                 2.1572
 Frc consts  --      8.5294                 8.7600                 3.4640
 IR Inten    --      8.7919                 0.2742                 5.2409

                     82                     83                     84
                      A                      A                      A
 Frequencies --   1653.1211              1666.2273              1667.7230
 Red. masses --      2.0685                 1.7262                 1.8687
 Frc consts  --      3.3306                 2.8236                 3.0622
 IR Inten    --     27.0482                40.0806               672.3563

                     85                     86                     87
                      A                      A                      A
 Frequencies --   3193.2126              3194.1402              3215.9877
 Red. masses --      1.0895                 1.0895                 1.0938
 Frc consts  --      6.5451                 6.5493                 6.6651
 IR Inten    --     18.4783                16.3179                 7.4553

                     88                     89                     90
                      A                      A                      A
 Frequencies --   3216.9003              3222.3498              3224.9305
 Red. masses --      1.0938                 1.0908                 1.0910
 Frc consts  --      6.6690                 6.6736                 6.6850
 IR Inten    --      6.4451                 7.7783                 7.8745

                     91                     92                     93
                      A                      A                      A
 Frequencies --   3529.6752              3579.4685              3580.2604
 Red. masses --      1.0679                 1.0480                 1.0480
 Frc consts  --      7.8390                 7.9115                 7.9147
 IR Inten    --    650.0872               104.2669                70.3141

                     94                     95                     96
                      A                      A                      A
 Frequencies --   3687.3655              3688.5972              3730.0683
 Red. masses --      1.1004                 1.1005                 1.0661
 Frc consts  --      8.8152                 8.8220                 8.7396
 IR Inten    --     41.3043                40.5831               238.0269

 - Thermochemistry -
 -------------------
 Temperature   298.150 Kelvin.  Pressure   1.00000 Atm.
 Atom     1 has atomic number  7 and mass  14.00307

 Molecular mass:   344.01368 amu.
 Principal axes and moments of inertia in atomic units:
                           1         2         3
     Eigenvalues --  5211.448668780.02017**********
           X            0.99925   0.03878   0.00202
           Y           -0.03877   0.99924  -0.00443
           Z           -0.00219   0.00435   0.99999
 This molecule is an asymmetric top.
 Rotational symmetry number  1.
 Warning -- assumption of classical behavior for rotation
           may cause significant error
 Rotational temperatures (Kelvin)      0.01662     0.00986     0.00841
 Rotational constants (GHZ):           0.34630     0.20555     0.17522
 Zero-point vibrational energy     637056.8 (Joules/Mol)
                                  152.26023 (Kcal/Mol)
 Warning -- explicit consideration of  39 degrees of freedom as
           vibrations may cause significant error
 Vibrational temperatures:     44.38    62.97    74.69    84.90   104.63
          (Kelvin)            176.34   185.48   197.96   223.42   263.44
                              275.69   301.65   335.95   387.24   405.79
                              424.32   450.36   466.70   477.21   504.24
                              515.19   555.89   557.39   575.82   594.50
                              621.61   643.36   672.36   690.26   710.23
                              720.28   751.52   759.77   773.99   776.77
                              825.54   846.08   885.63   888.38   992.16
                             1003.57  1009.64  1040.37  1043.45  1060.68
                             1154.94  1215.19  1221.49  1253.05  1261.57
                             1310.88  1325.34  1391.70  1394.52  1448.79
                             1520.41  1565.86  1585.75  1591.41  1612.19
                             1630.24  1670.27  1694.22  1697.77  1770.97
                             1831.30  1833.45  1885.29  1890.36  1910.71
                             1917.47  1933.01  1946.23  1951.05  2101.58
                             2110.77  2189.00  2234.47  2295.64  2300.97
                             2375.27  2378.47  2397.33  2399.48  4594.32
                             4595.66  4627.09  4628.40  4636.24  4639.96
                             5078.42  5150.06  5151.20  5305.30  5307.07
                             5366.74

 Zero-point correction=                           0.242642 (Hartree/Particle)
 Thermal correction to Energy=                    0.263478
 Thermal correction to Enthalpy=                  0.264422
 Thermal correction to Gibbs Free Energy=         0.193518
 Sum of electronic and zero-point Energies=          -1821.409497
 Sum of electronic and thermal Energies=             -1821.388661
 Sum of electronic and thermal Enthalpies=           -1821.387717
 Sum of electronic and thermal Free Energies=        -1821.458621

                     E (Thermal)             CV                S
                      KCal/Mol        Cal/Mol-Kelvin    Cal/Mol-Kelvin
 Total                  165.335             80.866            149.230
 Electronic               0.000              0.000              0.000
 Translational            0.889              2.981             43.401
 Rotational               0.889              2.981             34.510
 Vibrational            163.558             74.904             71.319
 Vibration     1          0.594              1.984              5.774
 Vibration     2          0.595              1.980              5.081
 Vibration     3          0.596              1.977              4.743
 Vibration     4          0.596              1.974              4.490
 Vibration     5          0.599              1.967              4.078
 Vibration     6          0.610              1.930              3.060
 Vibration     7          0.611              1.924              2.962
 Vibration     8          0.614              1.916              2.837
 Vibration     9          0.620              1.897              2.606
 Vibration    10          0.631              1.863              2.297
 Vibration    11          0.634              1.851              2.212
 Vibration    12          0.642              1.826              2.047
 Vibration    13          0.654              1.790              1.852
 Vibration    14          0.674              1.730              1.602
 Vibration    15          0.681              1.707              1.521
 Vibration    16          0.689              1.683              1.446
 Vibration    17          0.701              1.649              1.346
 Vibration    18          0.709              1.627              1.288
 Vibration    19          0.714              1.612              1.252
 Vibration    20          0.727              1.574              1.164
 Vibration    21          0.733              1.559              1.130
 Vibration    22          0.755              1.499              1.014
 Vibration    23          0.756              1.497              1.010
 Vibration    24          0.766              1.470              0.962
 Vibration    25          0.777              1.442              0.915
 Vibration    26          0.793              1.400              0.852
 Vibration    27          0.806              1.367              0.804
 Vibration    28          0.825              1.323              0.745
 Vibration    29          0.836              1.295              0.711
 Vibration    30          0.849              1.264              0.674
 Vibration    31          0.856              1.249              0.657
 Vibration    32          0.877              1.201              0.605
 Vibration    33          0.883              1.188              0.592
 Vibration    34          0.893              1.166              0.570
 Vibration    35          0.895              1.162              0.566
 Vibration    36          0.930              1.088              0.497
 Vibration    37          0.945              1.057              0.471
 Vibration    38          0.975              0.999              0.424
 Vibration    39          0.977              0.995              0.421

 Optimization completed.
    -- Stationary point found.
 Normal termination of Gaussian 16 at Thu Jul 18 14:17:28 2024.
 Gaussian 16:  ES64L-G16RevA.03 25-Dec-2016

 ----------------------------------------------------------------------
 # TD(NStates=10, Root=1) B3LYP/6-31G** SCRF=(Solvent=water) volume pop
 =NPA density=current Geom=AllCheck Guess=Read
 ----------------------------------------------------------------------

 Structure from the checkpoint file:  "MBJAPGAZEWPEFB-UHFFFAOYSA-N_conf_2_2.chk"
 ----------------------------------
 MBJAPGAZEWPEFB-UHFFFAOYSA-N_conf_2
 ----------------------------------
 Charge =  0 Multiplicity = 1

                         Standard orientation:
 ---------------------------------------------------------------------
 Center     Atomic      Atomic             Coordinates (Angstroms)
 Number     Number       Type             X           Y           Z
 ---------------------------------------------------------------------
      1          7           0        4.840875    1.219722   -1.118119
      2          6           0        3.500800    0.909482   -0.998150
      3          6           0        2.517267    1.613591   -1.717065
      4          6           0        1.178162    1.254131   -1.632672
      5          6           0        0.731679    0.182828   -0.843908
      6          6           0       -0.719043   -0.177835   -0.843650
      7          6           0       -1.167701   -1.226359   -1.663456
      8          6           0       -2.506113   -1.583748   -1.754774
      9          6           0       -3.485622   -0.903213   -1.007772
     10          7           0       -4.809966   -1.291585   -1.038742
     11          6           0       -3.062558    0.149412   -0.175621
     12          6           0       -1.714230    0.495599   -0.106653
     13         16           0       -1.361888    1.918132    0.938070
     14          8           0       -2.486953    2.099930    1.859834
     15          8           0       -0.049555    1.481462    1.783287
     16          8           0       -0.923470    3.064897    0.140653
     17          6           0        1.731636   -0.506686   -0.129381
     18         16           0        1.364635   -1.923744    0.905468
     19          8           0        0.704847   -2.994634    0.156259
     20          8           0        0.218020   -1.299059    1.934494
     21          8           0        2.531405   -2.233070    1.726337
     22          6           0        3.080786   -0.163209   -0.190303
     23          1           0        5.445604    0.906858   -0.371146
     24          1           0        5.058377    2.155687   -1.431590
     25          1           0        2.809379    2.448815   -2.346660
     26          1           0        0.443654    1.820727   -2.194472
     27          1           0       -0.435334   -1.772614   -2.247775
     28          1           0       -2.801357   -2.399668   -2.407902
     29          1           0       -5.491676   -0.603491   -0.750407
     30          1           0       -5.103552   -1.819550   -1.848950
     31          1           0       -3.783989    0.689908    0.425895
     32          1           0       -0.100638    0.539529    2.063726
     33          1           0       -0.569909   -1.872353    1.892332
     34          1           0        3.804390   -0.721183    0.391895
 ---------------------------------------------------------------------

 SCF Done:  E(RB3LYP) =  -1821.65213945     A.U. after    1 cycles

 Excitation energies and oscillator strengths:

 Excited State   1:      Singlet-A      3.9174 eV  316.50 nm  f=0.1780  <S**2>=0.000
      89 -> 90         0.69994
 This state for optimization and/or second-order correction.
 Total Energy, E(TD-HF/TD-DFT) =  -1821.50817860
 Copying the excited state density for this state as the 1-particle RhoCI density.

 Excited State   2:      Singlet-A      4.1351 eV  299.83 nm  f=0.0303  <S**2>=0.000
      88 -> 90         0.68427
      89 -> 91         0.13706

 Excited State   3:      Singlet-A      4.3030 eV  288.13 nm  f=0.0471  <S**2>=0.000
      88 -> 90        -0.11509
      88 -> 92        -0.11717
      89 -> 91         0.67411

 Excited State   4:      Singlet-A      4.4710 eV  277.31 nm  f=0.0582  <S**2>=0.000
      88 -> 91         0.68894
      89 -> 92        -0.10848

 Excited State   5:      Singlet-A      4.8390 eV  256.22 nm  f=0.4037  <S**2>=0.000
      88 -> 91         0.11655
      89 -> 92         0.68448

 Excited State   6:      Singlet-A      5.0234 eV  246.81 nm  f=0.0019  <S**2>=0.000
      88 -> 92         0.54743
      89 -> 93        -0.43713

 Excited State   7:      Singlet-A      5.2251 eV  237.28 nm  f=0.0003  <S**2>=0.000
      86 -> 90         0.27478
      87 -> 90         0.17717
      87 -> 91        -0.11067
      88 -> 92         0.34063
      88 -> 93        -0.10357
      89 -> 93         0.46835

 Excited State   8:      Singlet-A      5.2728 eV  235.14 nm  f=0.2117  <S**2>=0.000
      86 -> 90        -0.10350
      87 -> 90         0.22174
      88 -> 93         0.64297

 Excited State   9:      Singlet-A      5.4623 eV  226.98 nm  f=0.2451  <S**2>=0.000
      87 -> 90         0.62317
      87 -> 91         0.21948
      88 -> 93        -0.17211
      89 -> 93        -0.12539

 Excited State  10:      Singlet-A      5.6322 eV  220.13 nm  f=0.3637  <S**2>=0.000
      86 -> 90         0.58793
      86 -> 91        -0.25478
      87 -> 91         0.12624
      88 -> 92        -0.12944
      88 -> 93         0.12996
      89 -> 93        -0.13847

 The electronic state is 1-A.
 Alpha  occ. eigenvalues --  -89.15155 -89.14106 -19.22805 -19.20638 -19.17352
 Alpha  occ. eigenvalues --  -19.17331 -19.16006 -19.15906 -14.35102 -14.35060
 Alpha  occ. eigenvalues --  -10.25121 -10.25016 -10.24726 -10.24293 -10.22379
 Alpha  occ. eigenvalues --  -10.22209 -10.21312 -10.21012 -10.20901 -10.20863
 Alpha  occ. eigenvalues --  -10.20373 -10.20215  -8.17510  -8.16405  -6.14140
 Alpha  occ. eigenvalues --   -6.13894  -6.13742  -6.13009  -6.12792  -6.12683
 Alpha  occ. eigenvalues --   -1.16015  -1.14906  -1.05781  -1.04184  -1.03036
 Alpha  occ. eigenvalues --   -1.01576  -0.93404  -0.93280  -0.88308  -0.85708
 Alpha  occ. eigenvalues --   -0.78692  -0.78159  -0.77736  -0.73179  -0.70172
 Alpha  occ. eigenvalues --   -0.68628  -0.63936  -0.62962  -0.62698  -0.61213
 Alpha  occ. eigenvalues --   -0.57794  -0.56477  -0.53953  -0.52992  -0.52855
 Alpha  occ. eigenvalues --   -0.52319  -0.50736  -0.49897  -0.48908  -0.48814
 Alpha  occ. eigenvalues --   -0.48242  -0.46521  -0.45517  -0.45318  -0.45014
 Alpha  occ. eigenvalues --   -0.44268  -0.43202  -0.42266  -0.40723  -0.40191
 Alpha  occ. eigenvalues --   -0.39359  -0.38572  -0.38104  -0.37694  -0.36984
 Alpha  occ. eigenvalues --   -0.36736  -0.36057  -0.34393  -0.34147  -0.33530
 Alpha  occ. eigenvalues --   -0.33081  -0.32710  -0.32364  -0.31404  -0.30692
 Alpha  occ. eigenvalues --   -0.27582  -0.27272  -0.22416  -0.21661
 Alpha virt. eigenvalues --   -0.05056  -0.03633  -0.01688  -0.00661   0.02126
 Alpha virt. eigenvalues --    0.04647   0.05747   0.07134   0.07831   0.08641
 Alpha virt. eigenvalues --    0.08819   0.09459   0.09699   0.10946   0.11317

 Mulliken charges:
               1
     1  N   -0.625220
     2  C    0.284379
     3  C   -0.155710
     4  C   -0.086193
     5  C    0.016370
     6  C    0.025218
     7  C   -0.063491
     8  C   -0.112645
     9  C    0.294975
    10  N   -0.595692
    11  C   -0.105839
    12  C   -0.252048
    13  S    1.202485
    14  O   -0.538918
    15  O   -0.579415
    16  O   -0.536398
    17  C   -0.257104
    18  S    1.171652
    19  O   -0.552205
    20  O   -0.610066
    21  O   -0.533606
    22  C   -0.142622
    23  H    0.303485
    24  H    0.302377
    25  H    0.099176
    26  H    0.111002
    27  H    0.133325
    28  H    0.132870
    29  H    0.321726
    30  H    0.321263
    31  H    0.153397
    32  H    0.380897
    33  H    0.368723
    34  H    0.123852
 Sum of Mulliken charges =  -0.00000

 Dipole moment (field-independent basis, Debye):
    X=             -6.1991    Y=             -2.4721    Z=             -6.9382  Tot=              9.6270
 Quadrupole moment (field-independent basis, Debye-Ang):
   XX=            -70.8191   YY=           -162.6871   ZZ=           -138.4123
   XY=             39.6679   XZ=             10.5737   YZ=             -1.7623

 Summary of Natural Population Analysis:

                                       Natural Population
                Natural  -----------------------------------------------
    Atom  No    Charge         Core      Valence    Rydberg      Total
 -----------------------------------------------------------------------
      N    1   -0.75865      1.99947     5.74835    0.01083     7.75865
      C    2    0.18570      1.99899     3.79664    0.01867     5.81430
      C    3   -0.33661      1.99904     4.32206    0.01551     6.33661
      C    4   -0.19528      1.99904     4.18139    0.01485     6.19528
      C    5   -0.08150      1.99890     4.06133    0.02128     6.08150
      C    6   -0.00595      1.99891     3.98622    0.02083     6.00595
      C    7   -0.18432      1.99904     4.17059    0.01469     6.18432
      C    8   -0.26660      1.99904     4.25329    0.01427     6.26660
      C    9    0.20052      1.99899     3.78261    0.01788     5.79948
      N   10   -0.71608      1.99947     5.70664    0.00997     7.71608
      C   11   -0.23400      1.99896     4.21908    0.01596     6.23400
      C   12   -0.35342      1.99862     4.32798    0.02681     6.35342
      S   13    2.40437      9.99879     3.39241    0.20443    13.59563
      O   14   -0.96363      1.99988     6.94292    0.02082     8.96363
      O   15   -0.93741      1.99985     6.92656    0.01100     8.93741
      O   16   -0.95465      1.99988     6.93338    0.02139     8.95465
      C   17   -0.39307      1.99862     4.36619    0.02825     6.39307
      S   18    2.36073      9.99880     3.44013    0.20033    13.63927
      O   19   -0.96265      1.99988     6.94129    0.02147     8.96265
      O   20   -0.96680      1.99988     6.95496    0.01196     8.96680
      O   21   -0.95969      1.99988     6.93843    0.02138     8.95969
      C   22   -0.28937      1.99896     4.27317    0.01724     6.28937
      H   23    0.43042      0.00000     0.56732    0.00226     0.56958
      H   24    0.42955      0.00000     0.56795    0.00250     0.57045
      H   25    0.24801      0.00000     0.75050    0.00148     0.75199
      H   26    0.25852      0.00000     0.73994    0.00154     0.74148
      H   27    0.27209      0.00000     0.72648    0.00143     0.72791
      H   28    0.26373      0.00000     0.73484    0.00143     0.73627
      H   29    0.44201      0.00000     0.55594    0.00205     0.55799
      H   30    0.44160      0.00000     0.55621    0.00220     0.55840
      H   31    0.27806      0.00000     0.71989    0.00206     0.72194
      H   32    0.53992      0.00000     0.45534    0.00474     0.46008
      H   33    0.54109      0.00000     0.45451    0.00440     0.45891
      H   34    0.26336      0.00000     0.73452    0.00212     0.73664
 =======================================================================
   * Total *    0.00000     59.98289   117.22906    0.78805   178.00000

 Normal termination of Gaussian 16 at Thu Jul 18 14:53:30 2024.
