 Gaussian 16, Revision A.03,

 -------------------------------------------------------
 # opt=CalcFc B3LYP/6-31G** SCRF=(Solvent=water) scf=xqc
 -------------------------------------------------------

 ----------------------------------
 JZUHIOJYCPIVLQ-LURJTMIESA-N_conf_2
 ----------------------------------
 Symbolic Z-matrix:
 Charge =  0 Multiplicity = 1

 SCF Done:  E(RB3LYP) =  -347.796084303     A.U. after   11 cycles
 SCF Done:  E(RB3LYP) =  -347.798171923     A.U. after    9 cycles
 SCF Done:  E(RB3LYP) =  -347.798250526     A.U. after    9 cycles
 SCF Done:  E(RB3LYP) =  -347.798258888     A.U. after    8 cycles
 SCF Done:  E(RB3LYP) =  -347.798259192     A.U. after    7 cycles
 Optimization completed.
    -- Stationary point found.
 Normal termination of Gaussian 16 at Thu Jul 18 05:06:09 2024.

 ----------------------------------------------------------------------
 # freq B3LYP/6-31G** SCRF=(Solvent=water) volume NMR pop=NPA density=c
 urrent Geom=AllCheck Guess=Read
 ----------------------------------------------------------------------

 Structure from the checkpoint file:  "JZUHIOJYCPIVLQ-LURJTMIESA-N_conf_2_1.chk"
 ----------------------------------
 JZUHIOJYCPIVLQ-LURJTMIESA-N_conf_2
 ----------------------------------
 Charge =  0 Multiplicity = 1

 SCF Done:  E(RB3LYP) =  -347.798259192     A.U. after    1 cycles

      1  N    Isotropic =   237.0586   Anisotropy =    29.0479

      2  C    Isotropic =   145.4858   Anisotropy =    41.2397

      3  C    Isotropic =   154.8756   Anisotropy =    12.8913

      4  C    Isotropic =   173.0905   Anisotropy =    29.4433

      5  C    Isotropic =   163.0380   Anisotropy =    21.3334

      6  C    Isotropic =   166.7345   Anisotropy =    18.2479

      7  C    Isotropic =   147.7159   Anisotropy =    23.9153

      8  N    Isotropic =   235.2352   Anisotropy =    27.3234

      9  H    Isotropic =    31.3053   Anisotropy =    11.0512

     10  H    Isotropic =    31.1013   Anisotropy =    16.1962

     11  H    Isotropic =    29.4121   Anisotropy =     6.4850

     12  H    Isotropic =    28.8598   Anisotropy =     4.6535

     13  H    Isotropic =    29.9118   Anisotropy =     7.7976

     14  H    Isotropic =    30.7614   Anisotropy =     6.7504

     15  H    Isotropic =    30.9511   Anisotropy =     9.9714

     16  H    Isotropic =    30.9202   Anisotropy =     9.2550

     17  H    Isotropic =    30.2602   Anisotropy =     6.3289

     18  H    Isotropic =    30.3471   Anisotropy =     5.4718

     19  H    Isotropic =    30.3469   Anisotropy =     6.2829

     20  H    Isotropic =    30.3727   Anisotropy =     6.5736

     21  H    Isotropic =    28.9077   Anisotropy =     7.4034

     22  H    Isotropic =    29.1184   Anisotropy =     7.8788

     23  H    Isotropic =    31.0750   Anisotropy =    15.9004

     24  H    Isotropic =    31.2455   Anisotropy =    11.1386

  Exact polarizability: 108.792  -0.141  99.877  -1.238  -1.511  92.227
 Approx polarizability: 110.115   0.919 105.625  -0.648  -1.159 102.330

                      1                      2                      3
                      A                      A                      A
 Frequencies --     46.5813                70.6053               124.8888
 Red. masses --      3.0244                 3.0074                 2.9553
 Frc consts  --      0.0039                 0.0088                 0.0272
 IR Inten    --      3.1903                 2.0827                 3.1831

                      4                      5                      6
                      A                      A                      A
 Frequencies --    160.6546               193.1820               227.3102
 Red. masses --      2.0131                 1.9480                 1.0758
 Frc consts  --      0.0306                 0.0428                 0.0328
 IR Inten    --     13.8669                21.6754                 9.8481

                      7                      8                      9
                      A                      A                      A
 Frequencies --    229.2803               270.6907               275.0598
 Red. masses --      1.4108                 1.5690                 1.3411
 Frc consts  --      0.0437                 0.0677                 0.0598
 IR Inten    --     25.6456                14.8295                68.8268

                     10                     11                     12
                      A                      A                      A
 Frequencies --    310.8177               364.0150               457.9422
 Red. masses --      2.0639                 2.0820                 2.4349
 Frc consts  --      0.1175                 0.1625                 0.3009
 IR Inten    --     29.5139                 2.5063                 5.6730

                     13                     14                     15
                      A                      A                      A
 Frequencies --    480.0818               559.6507               757.4871
 Red. masses --      3.1291                 2.2781                 1.3034
 Frc consts  --      0.4249                 0.4204                 0.4406
 IR Inten    --     10.2697                 1.7615                 2.6482

                     16                     17                     18
                      A                      A                      A
 Frequencies --    787.6148               855.9111               872.1906
 Red. masses --      2.2008                 1.6289                 1.3251
 Frc consts  --      0.8044                 0.7031                 0.5939
 IR Inten    --      7.0353                28.6690               116.3443

                     19                     20                     21
                      A                      A                      A
 Frequencies --    902.2211               917.7598               946.4248
 Red. masses --      1.4786                 1.8602                 1.3510
 Frc consts  --      0.7091                 0.9231                 0.7130
 IR Inten    --    111.7299                69.4996                61.9212

                     22                     23                     24
                      A                      A                      A
 Frequencies --    954.1408               998.4093              1027.7145
 Red. masses --      1.6265                 2.1912                 1.5796
 Frc consts  --      0.8724                 1.2869                 0.9829
 IR Inten    --      9.7394                 3.9592                13.8274

                     25                     26                     27
                      A                      A                      A
 Frequencies --   1074.3793              1090.3475              1102.3919
 Red. masses --      2.6439                 1.5283                 2.3407
 Frc consts  --      1.7981                 1.0705                 1.6760
 IR Inten    --      9.6530                 8.1085                 6.0047

                     28                     29                     30
                      A                      A                      A
 Frequencies --   1132.3243              1167.6199              1187.2863
 Red. masses --      1.3640                 1.9301                 1.6013
 Frc consts  --      1.0304                 1.5504                 1.3299
 IR Inten    --      4.3299                13.2373                 5.9207

                     31                     32                     33
                      A                      A                      A
 Frequencies --   1209.6949              1243.1047              1308.1029
 Red. masses --      1.3519                 1.2710                 1.3011
 Frc consts  --      1.1656                 1.1572                 1.3118
 IR Inten    --      3.3033                 8.5033                 3.6104

                     34                     35                     36
                      A                      A                      A
 Frequencies --   1323.9765              1333.6252              1358.1191
 Red. masses --      1.4628                 1.2272                 1.1738
 Frc consts  --      1.5108                 1.2860                 1.2756
 IR Inten    --      0.9773                 8.8621                 3.3022

                     37                     38                     39
                      A                      A                      A
 Frequencies --   1359.9944              1381.3048              1411.0271
 Red. masses --      1.2289                 1.3233                 1.3977
 Frc consts  --      1.3392                 1.4876                 1.6396
 IR Inten    --      2.3444                 9.7288                 2.2562

                     40                     41                     42
                      A                      A                      A
 Frequencies --   1418.3789              1431.4727              1439.7610
 Red. masses --      1.3478                 1.4030                 1.4178
 Frc consts  --      1.5976                 1.6939                 1.7316
 IR Inten    --      4.2150                22.3970                12.8674

                     43                     44                     45
                      A                      A                      A
 Frequencies --   1485.7011              1500.9834              1507.1743
 Red. masses --      1.0920                 1.0535                 1.0672
 Frc consts  --      1.4202                 1.3984                 1.4283
 IR Inten    --      1.1030                 4.6914                 0.7660

                     46                     47                     48
                      A                      A                      A
 Frequencies --   1511.1215              1515.4699              1518.9893
 Red. masses --      1.0799                 1.0861                 1.0787
 Frc consts  --      1.4528                 1.4696                 1.4664
 IR Inten    --      6.6751                 1.2389                 9.1595

                     49                     50                     51
                      A                      A                      A
 Frequencies --   1660.5197              1660.9769              2951.0564
 Red. masses --      1.0860                 1.0860                 1.0728
 Frc consts  --      1.7642                 1.7653                 5.5045
 IR Inten    --     39.0389                48.1246               119.6774

                     52                     53                     54
                      A                      A                      A
 Frequencies --   2961.4030              3012.6826              3024.9648
 Red. masses --      1.0717                 1.0736                 1.0688
 Frc consts  --      5.5374                 5.7411                 5.7622
 IR Inten    --     99.5030                21.2201                93.5940

                     55                     56                     57
                      A                      A                      A
 Frequencies --   3032.7261              3036.6525              3052.6347
 Red. masses --      1.0579                 1.0409                 1.1006
 Frc consts  --      5.7325                 5.6550                 6.0426
 IR Inten    --     45.9153                37.2703                19.2300

                     58                     59                     60
                      A                      A                      A
 Frequencies --   3058.1150              3062.2475              3080.1628
 Red. masses --      1.0901                 1.0884                 1.1036
 Frc consts  --      6.0068                 6.0133                 6.1690
 IR Inten    --     74.7515                83.7408               120.4586

                     61                     62                     63
                      A                      A                      A
 Frequencies --   3103.0832              3105.7724              3485.5296
 Red. masses --      1.1019                 1.1021                 1.0509
 Frc consts  --      6.2516                 6.2636                 7.5226
 IR Inten    --     73.3088                57.8805                 1.2855

                     64                     65                     66
                      A                      A                      A
 Frequencies --   3486.9169              3560.1246              3561.1789
 Red. masses --      1.0509                 1.0913                 1.0912
 Frc consts  --      7.5286                 8.1495                 8.1533
 IR Inten    --      1.0128                 0.0069                 0.0081

 - Thermochemistry -
 -------------------
 Temperature   298.150 Kelvin.  Pressure   1.00000 Atm.
 Atom     1 has atomic number  7 and mass  14.00307

 Molecular mass:   116.13135 amu.
 Principal axes and moments of inertia in atomic units:
                           1         2         3
     Eigenvalues --   608.058981806.100552165.97792
           X            0.99983  -0.01634  -0.00865
           Y            0.01626   0.99983  -0.00873
           Z            0.00879   0.00859   0.99992
 This molecule is an asymmetric top.
 Rotational symmetry number  1.
 Warning -- assumption of classical behavior for rotation
           may cause significant error
 Rotational temperatures (Kelvin)      0.14244     0.04796     0.03999
 Rotational constants (GHZ):           2.96804     0.99925     0.83322
 Zero-point vibrational energy     590355.5 (Joules/Mol)
                                  141.09835 (Kcal/Mol)
 Warning -- explicit consideration of  14 degrees of freedom as
           vibrations may cause significant error
 Vibrational temperatures:     67.02   101.59   179.69   231.15   277.95
          (Kelvin)            327.05   329.88   389.46   395.75   447.20
                              523.74   658.88   690.73   805.21  1089.85
                             1133.20  1231.47  1254.89  1298.09  1320.45
                             1361.69  1372.80  1436.49  1478.65  1545.79
                             1568.77  1586.10  1629.16  1679.94  1708.24
                             1740.48  1788.55  1882.07  1904.91  1918.79
                             1954.03  1956.73  1987.39  2030.15  2040.73
                             2059.57  2071.49  2137.59  2159.58  2168.49
                             2174.17  2180.42  2185.49  2389.12  2389.78
                             4245.91  4260.80  4334.58  4352.25  4363.42
                             4369.07  4392.06  4399.95  4405.89  4431.67
                             4464.64  4468.51  5014.90  5016.90  5122.23
                             5123.74

 Zero-point correction=                           0.224855 (Hartree/Particle)
 Thermal correction to Energy=                    0.235430
 Thermal correction to Enthalpy=                  0.236374
 Thermal correction to Gibbs Free Energy=         0.188935
 Sum of electronic and zero-point Energies=           -347.573405
 Sum of electronic and thermal Energies=              -347.562830
 Sum of electronic and thermal Enthalpies=            -347.561885
 Sum of electronic and thermal Free Energies=         -347.609324

                     E (Thermal)             CV                S
                      KCal/Mol        Cal/Mol-Kelvin    Cal/Mol-Kelvin
 Total                  147.734             38.265             99.842
 Electronic               0.000              0.000              0.000
 Translational            0.889              2.981             40.164
 Rotational               0.889              2.981             29.255
 Vibrational            145.957             32.303             30.424
 Vibration     1          0.595              1.979              4.957
 Vibration     2          0.598              1.968              4.136
 Vibration     3          0.610              1.928              3.023
 Vibration     4          0.622              1.891              2.542
 Vibration     5          0.635              1.849              2.197
 Vibration     6          0.651              1.799              1.900
 Vibration     7          0.652              1.796              1.885
 Vibration     8          0.674              1.727              1.592
 Vibration     9          0.677              1.719              1.564
 Vibration    10          0.700              1.653              1.358
 Vibration    11          0.738              1.546              1.105
 Vibration    12          0.816              1.343              0.772
 Vibration    13          0.836              1.294              0.710
 Vibration    14          0.915              1.119              0.525

 Optimization completed.
    -- Stationary point found.
 Normal termination of Gaussian 16 at Thu Jul 18 05:12:10 2024.
 Gaussian 16:  ES64L-G16RevA.03 25-Dec-2016

 ----------------------------------------------------------------------
 # TD(NStates=10, Root=1) B3LYP/6-31G** SCRF=(Solvent=water) volume pop
 =NPA density=current Geom=AllCheck Guess=Read
 ----------------------------------------------------------------------

 Structure from the checkpoint file:  "JZUHIOJYCPIVLQ-LURJTMIESA-N_conf_2_2.chk"
 ----------------------------------
 JZUHIOJYCPIVLQ-LURJTMIESA-N_conf_2
 ----------------------------------
 Charge =  0 Multiplicity = 1

                         Standard orientation:
 ---------------------------------------------------------------------
 Center     Atomic      Atomic             Coordinates (Angstroms)
 Number     Number       Type             X           Y           Z
 ---------------------------------------------------------------------
      1          7           0       -2.237715   -1.673924   -0.323603
      2          6           0       -2.158203   -0.361089    0.338460
      3          6           0       -1.260124    0.623194   -0.430837
      4          6           0       -1.308133    2.011279    0.225417
      5          6           0        0.187153    0.113522   -0.624525
      6          6           0        0.995147   -0.139573    0.657927
      7          6           0        2.396554   -0.704053    0.396027
      8          7           0        3.251673    0.259480   -0.318375
      9          1           0       -1.365764   -2.178558   -0.174996
     10          1           0       -2.946379   -2.234579    0.145721
     11          1           0       -3.172710    0.054401    0.368486
     12          1           0       -1.820984   -0.419902    1.387641
     13          1           0       -1.690940    0.712796   -1.438076
     14          1           0       -0.951498    1.984200    1.260975
     15          1           0       -2.331561    2.401961    0.241152
     16          1           0       -0.685423    2.727713   -0.321155
     17          1           0        0.716459    0.848803   -1.244647
     18          1           0        0.158306   -0.812507   -1.215212
     19          1           0        1.097674    0.789841    1.230843
     20          1           0        0.461851   -0.850816    1.301722
     21          1           0        2.299580   -1.672266   -0.126517
     22          1           0        2.876105   -0.917642    1.358474
     23          1           0        4.197144   -0.115418   -0.367834
     24          1           0        2.946075    0.323396   -1.287548
 ---------------------------------------------------------------------

 SCF Done:  E(RB3LYP) =  -347.798259192     A.U. after    1 cycles

 Excitation energies and oscillator strengths:

 Excited State   1:      Singlet-A      7.1890 eV  172.46 nm  f=0.0133  <S**2>=0.000
      32 -> 34        -0.38049
      32 -> 35         0.14520
      33 -> 34         0.54781
      33 -> 35        -0.14490
 This state for optimization and/or second-order correction.
 Total Energy, E(TD-HF/TD-DFT) =  -347.534068374
 Copying the excited state density for this state as the 1-particle RhoCI density.

 Excited State   2:      Singlet-A      7.3178 eV  169.43 nm  f=0.0231  <S**2>=0.000
      32 -> 34         0.49991
      32 -> 35         0.26316
      33 -> 34         0.34384
      33 -> 35         0.24404

 Excited State   3:      Singlet-A      8.0638 eV  153.75 nm  f=0.0191  <S**2>=0.000
      32 -> 34        -0.28402
      32 -> 35         0.45489
      33 -> 34        -0.21520
      33 -> 35         0.38811

 Excited State   4:      Singlet-A      8.2595 eV  150.11 nm  f=0.0005  <S**2>=0.000
      32 -> 34        -0.10446
      32 -> 35        -0.19457
      32 -> 36        -0.34836
      33 -> 34         0.13362
      33 -> 35         0.22266
      33 -> 36         0.49714

 Excited State   5:      Singlet-A      8.3839 eV  147.88 nm  f=0.0105  <S**2>=0.000
      32 -> 35        -0.37004
      32 -> 36         0.15149
      32 -> 38         0.10889
      33 -> 34         0.11588
      33 -> 35         0.43367
      33 -> 36        -0.28753
      33 -> 38        -0.14911

 Excited State   6:      Singlet-A      8.4437 eV  146.84 nm  f=0.0157  <S**2>=0.000
      32 -> 36         0.52646
      32 -> 37        -0.19342
      32 -> 39         0.12036
      33 -> 36         0.34141
      33 -> 37        -0.17055
      33 -> 39         0.11706

 Excited State   7:      Singlet-A      8.6774 eV  142.88 nm  f=0.0309  <S**2>=0.000
      32 -> 36         0.12706
      32 -> 38         0.13968
      32 -> 40         0.12437
      33 -> 36         0.11270
      33 -> 37         0.61281
      33 -> 38        -0.11631

 Excited State   8:      Singlet-A      8.7026 eV  142.47 nm  f=0.0473  <S**2>=0.000
      32 -> 36         0.19873
      32 -> 37         0.60189
      33 -> 36         0.13139
      33 -> 38         0.14738
      33 -> 40         0.12142
      33 -> 41        -0.10191

 Excited State   9:      Singlet-A      8.8463 eV  140.15 nm  f=0.0287  <S**2>=0.000
      32 -> 37        -0.20195
      32 -> 38        -0.36868
      33 -> 37         0.20717
      33 -> 38         0.47900

 Excited State  10:      Singlet-A      9.1613 eV  135.33 nm  f=0.0553  <S**2>=0.000
      31 -> 34         0.14379
      32 -> 38         0.48570
      32 -> 40        -0.14528
      32 -> 42        -0.11560
      33 -> 38         0.38000
      33 -> 40        -0.14203
      33 -> 42        -0.10201

 The electronic state is 1-A.
 Alpha  occ. eigenvalues --  -14.30861 -14.30812 -10.20111 -10.19850 -10.18096
 Alpha  occ. eigenvalues --  -10.17389 -10.17342 -10.16874  -0.87518  -0.87180
 Alpha  occ. eigenvalues --   -0.79101  -0.73577  -0.66337  -0.65004  -0.58696
 Alpha  occ. eigenvalues --   -0.53545  -0.49041  -0.47873  -0.46293  -0.45353
 Alpha  occ. eigenvalues --   -0.42892  -0.41451  -0.39982  -0.39468  -0.36683
 Alpha  occ. eigenvalues --   -0.35831  -0.35202  -0.34168  -0.31560  -0.31008
 Alpha  occ. eigenvalues --   -0.30261  -0.23645  -0.23540
 Alpha virt. eigenvalues --    0.07117   0.09715   0.10207   0.11734   0.13097
 Alpha virt. eigenvalues --    0.14158   0.15004   0.15964   0.16986   0.17517
 Alpha virt. eigenvalues --    0.18378   0.18730   0.20810   0.20974   0.22280

 Mulliken charges:
               1
     1  N   -0.107040
     2  C   -0.089706
     3  C   -0.063612
     4  C   -0.319865
     5  C   -0.133252
     6  C   -0.119171
     7  C   -0.045632
     8  N   -0.630095
     9  H    0.019497
    10  H    0.117095
    11  H    0.094015
    12  H    0.144982
    13  H    0.101767
    14  H    0.110999
    15  H    0.096145
    16  H    0.111961
    17  H    0.062408
    18  H    0.008557
    19  H    0.066234
    20  H   -0.015801
    21  H    0.046812
    22  H    0.082800
    23  H    0.229983
    24  H    0.230918
 Sum of Mulliken charges =   0.00000

 Dipole moment (field-independent basis, Debye):
    X=             -3.6746    Y=             -1.1231    Z=             -0.6871  Tot=              3.9033
 Quadrupole moment (field-independent basis, Debye-Ang):
   XX=            -49.4802   YY=            -56.1003   ZZ=            -53.2266
   XY=             -1.5106   XZ=             -2.9494   YZ=             -0.2056

 Summary of Natural Population Analysis:

                                       Natural Population
                Natural  -----------------------------------------------
    Atom  No    Charge         Core      Valence    Rydberg      Total
 -----------------------------------------------------------------------
      N    1   -0.36672      1.99933     5.34711    0.02028     7.36672
      C    2   -0.36005      1.99922     4.34111    0.01972     6.36005
      C    3   -0.25827      1.99921     4.24581    0.01324     6.25827
      C    4   -0.69385      1.99943     4.68527    0.00915     6.69385
      C    5   -0.48245      1.99930     4.46823    0.01492     6.48245
      C    6   -0.48412      1.99931     4.47086    0.01395     6.48412
      C    7   -0.25758      1.99935     4.24429    0.01394     6.25758
      N    8   -0.93017      1.99968     5.91565    0.01485     7.93017
      H    9    0.19606      0.00000     0.72127    0.08267     0.80394
      H   10    0.27165      0.00000     0.66804    0.06031     0.72835
      H   11    0.22157      0.00000     0.75766    0.02076     0.77843
      H   12    0.27486      0.00000     0.70430    0.02084     0.72514
      H   13    0.25328      0.00000     0.74078    0.00595     0.74672
      H   14    0.23222      0.00000     0.76572    0.00206     0.76778
      H   15    0.22817      0.00000     0.76778    0.00405     0.77183
      H   16    0.24508      0.00000     0.75336    0.00156     0.75492
      H   17    0.21484      0.00000     0.77629    0.00888     0.78516
      H   18    0.17921      0.00000     0.79603    0.02476     0.82079
      H   19    0.21889      0.00000     0.77418    0.00693     0.78111
      H   20    0.15419      0.00000     0.81116    0.03465     0.84581
      H   21    0.17880      0.00000     0.80799    0.01321     0.82120
      H   22    0.22034      0.00000     0.77580    0.00386     0.77966
      H   23    0.37223      0.00000     0.62080    0.00696     0.62777
      H   24    0.36971      0.00000     0.62241    0.00789     0.63029
 =======================================================================
   * Total *   -0.00210     15.99483    49.58189    0.42538    66.00210

 Normal termination of Gaussian 16 at Thu Jul 18 05:20:03 2024.
