 Gaussian 16, Revision A.03,

 -------------------------------------------------------
 # opt=CalcFc B3LYP/6-31G** SCRF=(Solvent=water) scf=xqc
 -------------------------------------------------------

 ----------------------------------
 JZUHIOJYCPIVLQ-LURJTMIESA-N_conf_1
 ----------------------------------
 Symbolic Z-matrix:
 Charge =  0 Multiplicity = 1

 SCF Done:  E(RB3LYP) =  -347.797197016     A.U. after   11 cycles
 SCF Done:  E(RB3LYP) =  -347.800142553     A.U. after    9 cycles
 SCF Done:  E(RB3LYP) =  -347.800303633     A.U. after    9 cycles
 SCF Done:  E(RB3LYP) =  -347.800304865     A.U. after    7 cycles
 Optimization completed.
    -- Stationary point found.
 Normal termination of Gaussian 16 at Thu Jul 18 04:49:13 2024.

 ----------------------------------------------------------------------
 # freq B3LYP/6-31G** SCRF=(Solvent=water) volume NMR pop=NPA density=c
 urrent Geom=AllCheck Guess=Read
 ----------------------------------------------------------------------

 Structure from the checkpoint file:  "JZUHIOJYCPIVLQ-LURJTMIESA-N_conf_1_1.chk"
 ----------------------------------
 JZUHIOJYCPIVLQ-LURJTMIESA-N_conf_1
 ----------------------------------
 Charge =  0 Multiplicity = 1

 SCF Done:  E(RB3LYP) =  -347.800304865     A.U. after    1 cycles

      1  N    Isotropic =   232.9028   Anisotropy =    26.8552

      2  C    Isotropic =   142.2462   Anisotropy =    25.1891

      3  C    Isotropic =   154.2165   Anisotropy =    15.5439

      4  C    Isotropic =   175.0066   Anisotropy =    23.6827

      5  C    Isotropic =   157.3883   Anisotropy =    24.3565

      6  C    Isotropic =   159.5625   Anisotropy =    29.6331

      7  C    Isotropic =   145.5338   Anisotropy =    40.0772

      8  N    Isotropic =   230.2667   Anisotropy =    27.2418

      9  H    Isotropic =    31.0313   Anisotropy =    15.4152

     10  H    Isotropic =    31.7222   Anisotropy =    12.9861

     11  H    Isotropic =    28.8125   Anisotropy =     5.8310

     12  H    Isotropic =    29.3637   Anisotropy =     5.3369

     13  H    Isotropic =    30.1986   Anisotropy =     6.7846

     14  H    Isotropic =    30.9122   Anisotropy =     7.1558

     15  H    Isotropic =    30.0643   Anisotropy =     8.2853

     16  H    Isotropic =    31.1011   Anisotropy =     9.4730

     17  H    Isotropic =    30.4507   Anisotropy =     6.4306

     18  H    Isotropic =    30.4181   Anisotropy =     6.3680

     19  H    Isotropic =    30.4002   Anisotropy =     3.9070

     20  H    Isotropic =    30.7068   Anisotropy =     4.1495

     21  H    Isotropic =    29.3781   Anisotropy =     5.6574

     22  H    Isotropic =    29.4005   Anisotropy =     5.7375

     23  H    Isotropic =    31.4072   Anisotropy =    12.2217

     24  H    Isotropic =    31.4267   Anisotropy =    12.2882

  Exact polarizability: 107.706  -0.792  98.769   2.715   1.353  95.587
 Approx polarizability: 107.528  -0.538 106.417   3.046   1.768 105.021

                      1                      2                      3
                      A                      A                      A
 Frequencies --     59.1986                69.5681                98.8077
 Red. masses --      1.7622                 2.6473                 2.7458
 Frc consts  --      0.0036                 0.0075                 0.0158
 IR Inten    --      3.7236                 3.7651                 8.0454

                      4                      5                      6
                      A                      A                      A
 Frequencies --    132.5929               160.9576               224.6341
 Red. masses --      2.5256                 2.4631                 1.1785
 Frc consts  --      0.0262                 0.0376                 0.0350
 IR Inten    --      0.1714                 0.6080                 2.1651

                      7                      8                      9
                      A                      A                      A
 Frequencies --    248.8525               255.2352               297.3999
 Red. masses --      1.1332                 2.2241                 1.1834
 Frc consts  --      0.0413                 0.0854                 0.0617
 IR Inten    --     62.7363                 1.5835                64.6541

                     10                     11                     12
                      A                      A                      A
 Frequencies --    304.1631               357.6367               405.5965
 Red. masses --      3.0858                 2.0485                 2.5206
 Frc consts  --      0.1682                 0.1544                 0.2443
 IR Inten    --     16.4716                 1.1206                 7.0744

                     13                     14                     15
                      A                      A                      A
 Frequencies --    465.0309               590.3589               743.0520
 Red. masses --      2.4170                 3.1263                 1.0959
 Frc consts  --      0.3080                 0.6420                 0.3565
 IR Inten    --     11.4536                 1.8863                 5.4437

                     16                     17                     18
                      A                      A                      A
 Frequencies --    800.0311               829.2512               872.7153
 Red. masses --      2.2966                 1.3104                 1.2868
 Frc consts  --      0.8660                 0.5309                 0.5774
 IR Inten    --     16.7199                 5.3021               114.2382

                     19                     20                     21
                      A                      A                      A
 Frequencies --    906.6581               931.1763               965.0554
 Red. masses --      1.8217                 1.4811                 2.1716
 Frc consts  --      0.8823                 0.7567                 1.1916
 IR Inten    --    224.3110                17.3274                66.3845

                     22                     23                     24
                      A                      A                      A
 Frequencies --    984.9471               991.7689              1050.7773
 Red. masses --      1.7559                 1.4338                 2.0603
 Frc consts  --      1.0037                 0.8309                 1.3403
 IR Inten    --     17.5968                 1.4190                26.1360

                     25                     26                     27
                      A                      A                      A
 Frequencies --   1054.6107              1073.4643              1094.3060
 Red. masses --      1.6661                 2.3167                 1.8607
 Frc consts  --      1.0918                 1.5729                 1.3128
 IR Inten    --     13.3401                31.7845                 7.9434

                     28                     29                     30
                      A                      A                      A
 Frequencies --   1106.5985              1150.5243              1194.1744
 Red. masses --      1.6330                 1.7245                 1.7522
 Frc consts  --      1.1782                 1.3450                 1.4722
 IR Inten    --     12.6886                 9.8857                 4.2141

                     31                     32                     33
                      A                      A                      A
 Frequencies --   1229.7419              1284.9236              1301.8082
 Red. masses --      1.7054                 1.3501                 1.2608
 Frc consts  --      1.5195                 1.3133                 1.2589
 IR Inten    --      0.6834                 2.6444                 0.2482

                     34                     35                     36
                      A                      A                      A
 Frequencies --   1323.6370              1335.2740              1356.7084
 Red. masses --      1.1773                 1.1027                 1.4382
 Frc consts  --      1.2152                 1.1583                 1.5597
 IR Inten    --     12.3016                 0.8916                 2.6858

                     37                     38                     39
                      A                      A                      A
 Frequencies --   1385.1201              1391.6842              1396.9351
 Red. masses --      1.2866                 1.2995                 1.1883
 Frc consts  --      1.4544                 1.4829                 1.3663
 IR Inten    --      2.1325                 4.1643                 0.2398

                     40                     41                     42
                      A                      A                      A
 Frequencies --   1408.3968              1413.3695              1436.5882
 Red. masses --      1.3866                 1.4393                 1.3980
 Frc consts  --      1.6205                 1.6940                 1.6998
 IR Inten    --     11.1077                12.9302                 7.7468

                     43                     44                     45
                      A                      A                      A
 Frequencies --   1484.8134              1493.5082              1497.1889
 Red. masses --      1.0816                 1.0797                 1.0600
 Frc consts  --      1.4049                 1.4190                 1.4000
 IR Inten    --      0.3440                 3.7510                 3.0705

                     46                     47                     48
                      A                      A                      A
 Frequencies --   1512.2812              1515.5718              1518.6928
 Red. masses --      1.0747                 1.0773                 1.0850
 Frc consts  --      1.4481                 1.4580                 1.4744
 IR Inten    --      1.1171                 8.6685                 1.0236

                     49                     50                     51
                      A                      A                      A
 Frequencies --   1654.8675              1660.3019              2951.7169
 Red. masses --      1.0875                 1.0870                 1.0726
 Frc consts  --      1.7547                 1.7654                 5.5058
 IR Inten    --     35.9303                31.3585               133.9778

                     52                     53                     54
                      A                      A                      A
 Frequencies --   2988.3471              3014.0627              3021.0383
 Red. masses --      1.0803                 1.0616                 1.0584
 Frc consts  --      5.6842                 5.6824                 5.6915
 IR Inten    --     41.6697                49.3399                 1.5621

                     55                     56                     57
                      A                      A                      A
 Frequencies --   3027.1564              3038.6040              3042.4080
 Red. masses --      1.0602                 1.0468                 1.0914
 Frc consts  --      5.7240                 5.6947                 5.9520
 IR Inten    --    142.7672                34.8377                12.7650

                     58                     59                     60
                      A                      A                      A
 Frequencies --   3054.4859              3056.8677              3076.6499
 Red. masses --      1.1008                 1.0920                 1.1066
 Frc consts  --      6.0509                 6.0119                 6.1714
 IR Inten    --     27.4741                75.9055               184.8057

                     61                     62                     63
                      A                      A                      A
 Frequencies --   3101.0395              3128.8986              3468.6433
 Red. masses --      1.1019                 1.1000                 1.0502
 Frc consts  --      6.2431                 6.3451                 7.4444
 IR Inten    --     68.6083                39.0722                 1.5840

                     64                     65                     66
                      A                      A                      A
 Frequencies --   3477.0299              3545.3776              3556.1073
 Red. masses --      1.0510                 1.0914                 1.0914
 Frc consts  --      7.4863                 8.0829                 8.1314
 IR Inten    --      1.7638                 0.2381                 0.0806

 - Thermochemistry -
 -------------------
 Temperature   298.150 Kelvin.  Pressure   1.00000 Atm.
 Atom     1 has atomic number  7 and mass  14.00307

 Molecular mass:   116.13135 amu.
 Principal axes and moments of inertia in atomic units:
                           1         2         3
     Eigenvalues --   448.221292360.443592507.72757
           X            1.00000  -0.00059   0.00238
           Y            0.00063   0.99986  -0.01662
           Z           -0.00237   0.01662   0.99986
 This molecule is an asymmetric top.
 Rotational symmetry number  1.
 Warning -- assumption of classical behavior for rotation
           may cause significant error
 Rotational temperatures (Kelvin)      0.19324     0.03669     0.03454
 Rotational constants (GHZ):           4.02645     0.76458     0.71967
 Zero-point vibrational energy     589573.5 (Joules/Mol)
                                  140.91144 (Kcal/Mol)
 Warning -- explicit consideration of  14 degrees of freedom as
           vibrations may cause significant error
 Vibrational temperatures:     85.17   100.09   142.16   190.77   231.58
          (Kelvin)            323.20   358.04   367.23   427.89   437.62
                              514.56   583.56   669.08   849.39  1069.09
                             1151.07  1193.11  1255.64  1304.48  1339.76
                             1388.50  1417.12  1426.93  1511.83  1517.35
                             1544.48  1574.46  1592.15  1655.35  1718.15
                             1769.32  1848.72  1873.01  1904.42  1921.16
                             1952.00  1992.88  2002.32  2009.88  2026.37
                             2033.52  2066.93  2136.32  2148.83  2154.12
                             2175.84  2180.57  2185.06  2380.99  2388.80
                             4246.86  4299.57  4336.56  4346.60  4355.40
                             4371.87  4377.35  4394.72  4398.15  4426.61
                             4461.70  4501.79  4990.60  5002.67  5101.01
                             5116.45

 Zero-point correction=                           0.224557 (Hartree/Particle)
 Thermal correction to Energy=                    0.235282
 Thermal correction to Enthalpy=                  0.236226
 Thermal correction to Gibbs Free Energy=         0.188366
 Sum of electronic and zero-point Energies=           -347.575748
 Sum of electronic and thermal Energies=              -347.565023
 Sum of electronic and thermal Enthalpies=            -347.564079
 Sum of electronic and thermal Free Energies=         -347.611939

                     E (Thermal)             CV                S
                      KCal/Mol        Cal/Mol-Kelvin    Cal/Mol-Kelvin
 Total                  147.642             38.411            100.731
 Electronic               0.000              0.000              0.000
 Translational            0.889              2.981             40.164
 Rotational               0.889              2.981             29.363
 Vibrational            145.864             32.450             31.204
 Vibration     1          0.597              1.974              4.484
 Vibration     2          0.598              1.969              4.166
 Vibration     3          0.604              1.950              3.478
 Vibration     4          0.613              1.921              2.908
 Vibration     5          0.622              1.890              2.539
 Vibration     6          0.649              1.804              1.921
 Vibration     7          0.662              1.765              1.739
 Vibration     8          0.666              1.754              1.694
 Vibration     9          0.691              1.679              1.431
 Vibration    10          0.695              1.666              1.394
 Vibration    11          0.733              1.560              1.132
 Vibration    12          0.771              1.458              0.942
 Vibration    13          0.822              1.328              0.752
 Vibration    14          0.948              1.052              0.467

 Optimization completed.
    -- Stationary point found.
 Normal termination of Gaussian 16 at Thu Jul 18 04:55:07 2024.
 Gaussian 16:  ES64L-G16RevA.03 25-Dec-2016

 ----------------------------------------------------------------------
 # TD(NStates=10, Root=1) B3LYP/6-31G** SCRF=(Solvent=water) volume pop
 =NPA density=current Geom=AllCheck Guess=Read
 ----------------------------------------------------------------------

 Structure from the checkpoint file:  "JZUHIOJYCPIVLQ-LURJTMIESA-N_conf_1_2.chk"
 ----------------------------------
 JZUHIOJYCPIVLQ-LURJTMIESA-N_conf_1
 ----------------------------------
 Charge =  0 Multiplicity = 1

                         Standard orientation:
 ---------------------------------------------------------------------
 Center     Atomic      Atomic             Coordinates (Angstroms)
 Number     Number       Type             X           Y           Z
 ---------------------------------------------------------------------
      1          7           0        3.249734   -0.871676   -0.243590
      2          6           0        1.791812   -0.897031   -0.042504
      3          6           0        1.265419    0.470690    0.427392
      4          6           0        1.485983    1.564131   -0.627609
      5          6           0       -0.201087    0.388112    0.906510
      6          6           0       -1.240764   -0.032115   -0.143787
      7          6           0       -2.670555   -0.052104    0.418364
      8          7           0       -3.726778   -0.448339   -0.524880
      9          1           0        3.553448   -1.780370   -0.588175
     10          1           0        3.703430   -0.764674    0.662798
     11          1           0        1.467725   -1.665934    0.680622
     12          1           0        1.331068   -1.159399   -1.003000
     13          1           0        1.858984    0.746222    1.313475
     14          1           0        0.926899    1.354041   -1.546542
     15          1           0        2.543764    1.629705   -0.893649
     16          1           0        1.161968    2.542533   -0.255743
     17          1           0       -0.486225    1.369173    1.311174
     18          1           0       -0.252950   -0.313562    1.750962
     19          1           0       -1.212764    0.651215   -1.002822
     20          1           0       -1.005311   -1.031538   -0.533733
     21          1           0       -2.714267   -0.734604    1.277313
     22          1           0       -2.922249    0.944099    0.805375
     23          1           0       -3.695184    0.174013   -1.331791
     24          1           0       -3.503874   -1.370913   -0.897176
 ---------------------------------------------------------------------

 SCF Done:  E(RB3LYP) =  -347.800304865     A.U. after    1 cycles

 Excitation energies and oscillator strengths:

 Excited State   1:      Singlet-A      7.4022 eV  167.50 nm  f=0.0166  <S**2>=0.000
      32 -> 34        -0.34613
      32 -> 35         0.21553
      32 -> 36         0.13502
      33 -> 34         0.46542
      33 -> 35        -0.25451
      33 -> 36        -0.17303
 This state for optimization and/or second-order correction.
 Total Energy, E(TD-HF/TD-DFT) =  -347.528279056
 Copying the excited state density for this state as the 1-particle RhoCI density.

 Excited State   2:      Singlet-A      7.4470 eV  166.49 nm  f=0.0193  <S**2>=0.000
      32 -> 34         0.30147
      32 -> 35         0.44418
      33 -> 34         0.22551
      33 -> 35         0.37443

 Excited State   3:      Singlet-A      8.0903 eV  153.25 nm  f=0.0349  <S**2>=0.000
      32 -> 34         0.42220
      32 -> 35        -0.26753
      32 -> 36         0.15834
      33 -> 34         0.38186
      33 -> 35        -0.16223
      33 -> 36         0.20728

 Excited State   4:      Singlet-A      8.1583 eV  151.97 nm  f=0.0236  <S**2>=0.000
      32 -> 34        -0.29979
      32 -> 35        -0.22271
      32 -> 36        -0.27010
      33 -> 34         0.26113
      33 -> 35         0.33380
      33 -> 36         0.30527

 Excited State   5:      Singlet-A      8.3665 eV  148.19 nm  f=0.0094  <S**2>=0.000
      32 -> 35         0.28949
      32 -> 36        -0.30235
      33 -> 35        -0.33938
      33 -> 36         0.38756
      33 -> 37        -0.11851
      33 -> 38        -0.10171

 Excited State   6:      Singlet-A      8.4699 eV  146.38 nm  f=0.0179  <S**2>=0.000
      32 -> 34        -0.10545
      32 -> 35         0.16624
      32 -> 36         0.46918
      32 -> 37         0.12784
      32 -> 38        -0.12221
      32 -> 39         0.11582
      33 -> 35         0.13547
      33 -> 36         0.35813
      33 -> 37         0.11984
      33 -> 38        -0.10047

 Excited State   7:      Singlet-A      8.5957 eV  144.24 nm  f=0.0217  <S**2>=0.000
      32 -> 35         0.13502
      32 -> 36         0.10383
      32 -> 37        -0.36901
      32 -> 38         0.20059
      32 -> 40        -0.10584
      33 -> 36         0.15313
      33 -> 38         0.47238

 Excited State   8:      Singlet-A      8.6033 eV  144.11 nm  f=0.0162  <S**2>=0.000
      32 -> 36         0.14638
      32 -> 38         0.44299
      33 -> 35         0.14579
      33 -> 37        -0.40858
      33 -> 38        -0.21676

 Excited State   9:      Singlet-A      8.8583 eV  139.96 nm  f=0.0336  <S**2>=0.000
      32 -> 37         0.41625
      32 -> 38         0.35265
      32 -> 39        -0.11567
      33 -> 37         0.33360
      33 -> 38         0.23403
      33 -> 39        -0.10091

 Excited State  10:      Singlet-A      8.8982 eV  139.34 nm  f=0.0307  <S**2>=0.000
      32 -> 37        -0.36080
      32 -> 38         0.26537
      33 -> 37         0.40051
      33 -> 38        -0.33102

 The electronic state is 1-A.
 Alpha  occ. eigenvalues --  -14.30899 -14.30815 -10.20039 -10.19831 -10.18132
 Alpha  occ. eigenvalues --  -10.17473 -10.17231 -10.16416  -0.87456  -0.87260
 Alpha  occ. eigenvalues --   -0.79238  -0.73138  -0.66319  -0.64175  -0.59560
 Alpha  occ. eigenvalues --   -0.54268  -0.49152  -0.47461  -0.45365  -0.44390
 Alpha  occ. eigenvalues --   -0.43672  -0.41669  -0.39466  -0.38127  -0.37916
 Alpha  occ. eigenvalues --   -0.35850  -0.35241  -0.33176  -0.32122  -0.31334
 Alpha  occ. eigenvalues --   -0.30574  -0.23461  -0.23373
 Alpha virt. eigenvalues --    0.08409   0.09000   0.10394   0.11954   0.12040
 Alpha virt. eigenvalues --    0.14252   0.15492   0.16166   0.17163   0.17474
 Alpha virt. eigenvalues --    0.18695   0.18916   0.19358   0.20255   0.21612

 Mulliken charges:
               1
     1  N   -0.056690
     2  C   -0.072899
     3  C   -0.027329
     4  C   -0.299022
     5  C   -0.181549
     6  C   -0.182005
     7  C   -0.061554
     8  N   -0.639814
     9  H    0.008638
    10  H   -0.021353
    11  H    0.088892
    12  H    0.098477
    13  H    0.031994
    14  H    0.105022
    15  H    0.076783
    16  H    0.087361
    17  H    0.092598
    18  H    0.070065
    19  H    0.094637
    20  H    0.091469
    21  H    0.099900
    22  H    0.100390
    23  H    0.248191
    24  H    0.247798
 Sum of Mulliken charges =  -0.00000

 Dipole moment (field-independent basis, Debye):
    X=              0.9278    Y=             -0.3101    Z=             -1.5954  Tot=              1.8714
 Quadrupole moment (field-independent basis, Debye-Ang):
   XX=            -69.8348   YY=            -54.0341   ZZ=            -54.2427
   XY=             -0.1694   XZ=              1.1975   YZ=              0.4563

 Summary of Natural Population Analysis:

                                       Natural Population
                Natural  -----------------------------------------------
    Atom  No    Charge         Core      Valence    Rydberg      Total
 -----------------------------------------------------------------------
      N    1   -0.37085      1.99934     5.34822    0.02328     7.37085
      C    2   -0.36095      1.99924     4.34074    0.02097     6.36095
      C    3   -0.26524      1.99921     4.25080    0.01523     6.26524
      C    4   -0.68847      1.99942     4.67990    0.00915     6.68847
      C    5   -0.47061      1.99931     4.45806    0.01324     6.47061
      C    6   -0.48553      1.99932     4.47538    0.01084     6.48553
      C    7   -0.26132      1.99937     4.24678    0.01517     6.26132
      N    8   -0.92374      1.99970     5.90886    0.01517     7.92374
      H    9    0.19359      0.00000     0.72398    0.08243     0.80641
      H   10    0.17304      0.00000     0.73743    0.08953     0.82696
      H   11    0.23831      0.00000     0.72379    0.03790     0.76169
      H   12    0.22597      0.00000     0.75462    0.01941     0.77403
      H   13    0.20840      0.00000     0.76363    0.02797     0.79160
      H   14    0.22984      0.00000     0.76724    0.00292     0.77016
      H   15    0.21732      0.00000     0.77393    0.00875     0.78268
      H   16    0.22294      0.00000     0.77027    0.00679     0.77706
      H   17    0.23858      0.00000     0.75836    0.00306     0.76142
      H   18    0.21519      0.00000     0.77549    0.00932     0.78481
      H   19    0.22896      0.00000     0.76807    0.00297     0.77104
      H   20    0.22451      0.00000     0.77250    0.00299     0.77549
      H   21    0.22208      0.00000     0.77549    0.00243     0.77792
      H   22    0.22236      0.00000     0.77538    0.00226     0.77764
      H   23    0.38273      0.00000     0.61427    0.00299     0.61727
      H   24    0.38250      0.00000     0.61439    0.00312     0.61750
 =======================================================================
   * Total *   -0.00039     15.99492    49.57758    0.42789    66.00039

 Normal termination of Gaussian 16 at Thu Jul 18 05:02:37 2024.
