 Gaussian 16, Revision A.03,

 -------------------------------------------------------
 # opt=CalcFc B3LYP/6-31G** SCRF=(Solvent=water) scf=xqc
 -------------------------------------------------------

 ----------------------------------
 JZUHIOJYCPIVLQ-LURJTMIESA-N_conf_3
 ----------------------------------
 Symbolic Z-matrix:
 Charge =  0 Multiplicity = 1

 SCF Done:  E(RB3LYP) =  -347.798443958     A.U. after   11 cycles
 SCF Done:  E(RB3LYP) =  -347.800950145     A.U. after    9 cycles
 SCF Done:  E(RB3LYP) =  -347.801171985     A.U. after    9 cycles
 SCF Done:  E(RB3LYP) =  -347.801189483     A.U. after    8 cycles
 SCF Done:  E(RB3LYP) =  -347.801191983     A.U. after    7 cycles
 SCF Done:  E(RB3LYP) =  -347.801191956     A.U. after    7 cycles
 Optimization completed.
    -- Stationary point found.
 Normal termination of Gaussian 16 at Thu Jul 18 05:10:24 2024.

 ----------------------------------------------------------------------
 # freq B3LYP/6-31G** SCRF=(Solvent=water) volume NMR pop=NPA density=c
 urrent Geom=AllCheck Guess=Read
 ----------------------------------------------------------------------

 Structure from the checkpoint file:  "JZUHIOJYCPIVLQ-LURJTMIESA-N_conf_3_1.chk"
 ----------------------------------
 JZUHIOJYCPIVLQ-LURJTMIESA-N_conf_3
 ----------------------------------
 Charge =  0 Multiplicity = 1

 SCF Done:  E(RB3LYP) =  -347.801191956     A.U. after    1 cycles

      1  N    Isotropic =   234.0813   Anisotropy =    29.1908

      2  C    Isotropic =   140.5069   Anisotropy =    32.8568

      3  C    Isotropic =   152.4333   Anisotropy =    13.7243

      4  C    Isotropic =   172.8330   Anisotropy =    28.3432

      5  C    Isotropic =   160.3487   Anisotropy =    22.9339

      6  C    Isotropic =   157.0290   Anisotropy =    25.4082

      7  C    Isotropic =   146.7826   Anisotropy =    25.6380

      8  N    Isotropic =   236.8495   Anisotropy =    40.3992

      9  H    Isotropic =    31.0938   Anisotropy =    15.6982

     10  H    Isotropic =    31.6862   Anisotropy =    12.9117

     11  H    Isotropic =    28.7893   Anisotropy =     6.7272

     12  H    Isotropic =    29.6090   Anisotropy =     4.9085

     13  H    Isotropic =    30.3714   Anisotropy =     5.4091

     14  H    Isotropic =    31.3559   Anisotropy =     8.1145

     15  H    Isotropic =    30.4844   Anisotropy =     8.1217

     16  H    Isotropic =    30.9698   Anisotropy =     9.7742

     17  H    Isotropic =    30.6791   Anisotropy =     5.3524

     18  H    Isotropic =    29.6785   Anisotropy =     6.2601

     19  H    Isotropic =    30.2496   Anisotropy =     5.2312

     20  H    Isotropic =    30.5883   Anisotropy =     6.8459

     21  H    Isotropic =    28.9772   Anisotropy =     8.5098

     22  H    Isotropic =    29.3008   Anisotropy =     7.1478

     23  H    Isotropic =    30.9138   Anisotropy =    11.3905

     24  H    Isotropic =    31.8976   Anisotropy =    13.1488

  Exact polarizability: 105.093  -3.098  99.353   0.697   1.518  98.481
 Approx polarizability: 105.025  -3.420 106.150  -0.323   0.993 108.982

                      1                      2                      3
                      A                      A                      A
 Frequencies --     39.7484                88.5053               118.3331
 Red. masses --      2.8782                 2.4454                 3.0336
 Frc consts  --      0.0027                 0.0113                 0.0250
 IR Inten    --      0.0923                 0.4578                 5.7763

                      4                      5                      6
                      A                      A                      A
 Frequencies --    131.3792               176.7119               211.2443
 Red. masses --      2.1380                 1.5370                 1.2650
 Frc consts  --      0.0217                 0.0283                 0.0333
 IR Inten    --      6.0511                 3.6263                 6.6289

                      7                      8                      9
                      A                      A                      A
 Frequencies --    245.1835               262.6142               284.2954
 Red. masses --      1.1688                 2.0353                 1.8015
 Frc consts  --      0.0414                 0.0827                 0.0858
 IR Inten    --     67.0551                 8.5513                38.3660

                     10                     11                     12
                      A                      A                      A
 Frequencies --    327.1779               382.9207               434.6582
 Red. masses --      1.5024                 2.2659                 2.3375
 Frc consts  --      0.0948                 0.1958                 0.2602
 IR Inten    --     21.9753                 2.2443                 3.1853

                     13                     14                     15
                      A                      A                      A
 Frequencies --    481.5743               508.7318               766.1015
 Red. masses --      2.6861                 2.3045                 1.2245
 Frc consts  --      0.3670                 0.3514                 0.4234
 IR Inten    --     19.0040                 7.5233                11.1972

                     16                     17                     18
                      A                      A                      A
 Frequencies --    808.6215               848.3554               870.2237
 Red. masses --      1.7788                 1.9094                 1.3757
 Frc consts  --      0.6853                 0.8096                 0.6138
 IR Inten    --      6.4798                77.4860               104.9434

                     19                     20                     21
                      A                      A                      A
 Frequencies --    894.2696               922.0910               937.1348
 Red. masses --      1.9342                 1.4470                 1.5832
 Frc consts  --      0.9113                 0.7249                 0.8192
 IR Inten    --     59.8355                58.4705                86.2037

                     22                     23                     24
                      A                      A                      A
 Frequencies --    970.3003              1006.7580              1035.5428
 Red. masses --      1.5934                 1.7421                 1.5520
 Frc consts  --      0.8839                 1.0403                 0.9806
 IR Inten    --     44.6533                71.2646                 5.6377

                     25                     26                     27
                      A                      A                      A
 Frequencies --   1063.9058              1080.7879              1089.6408
 Red. masses --      1.3641                 2.6161                 2.2697
 Frc consts  --      0.9097                 1.8005                 1.5877
 IR Inten    --      3.8042                22.5389                 5.9539

                     28                     29                     30
                      A                      A                      A
 Frequencies --   1108.6066              1162.1128              1203.0181
 Red. masses --      1.8579                 1.8961                 1.6266
 Frc consts  --      1.3453                 1.5087                 1.3870
 IR Inten    --      5.9468                 3.3642                 8.9091

                     31                     32                     33
                      A                      A                      A
 Frequencies --   1205.2302              1264.3780              1308.2992
 Red. masses --      1.5176                 1.4962                 1.2358
 Frc consts  --      1.2988                 1.4092                 1.2463
 IR Inten    --      4.1403                 1.5404                 1.9306

                     34                     35                     36
                      A                      A                      A
 Frequencies --   1318.0465              1337.3760              1361.0786
 Red. masses --      1.2131                 1.1316                 1.3830
 Frc consts  --      1.2417                 1.1925                 1.5095
 IR Inten    --      2.7090                10.6149                 3.5239

                     37                     38                     39
                      A                      A                      A
 Frequencies --   1376.3210              1394.6700              1397.8435
 Red. masses --      1.3523                 1.2951                 1.2215
 Frc consts  --      1.5092                 1.4842                 1.4062
 IR Inten    --      4.7930                20.3187                 0.5177

                     40                     41                     42
                      A                      A                      A
 Frequencies --   1406.7935              1418.4531              1432.5775
 Red. masses --      1.4494                 1.3139                 1.3819
 Frc consts  --      1.6901                 1.5576                 1.6709
 IR Inten    --     10.7092                 1.7887                16.0855

                     43                     44                     45
                      A                      A                      A
 Frequencies --   1485.6822              1497.2693              1501.3898
 Red. masses --      1.0878                 1.0917                 1.0663
 Frc consts  --      1.4146                 1.4419                 1.4161
 IR Inten    --      1.1512                 0.2474                 1.8966

                     46                     47                     48
                      A                      A                      A
 Frequencies --   1506.3669              1511.9560              1516.1912
 Red. masses --      1.0576                 1.0747                 1.0861
 Frc consts  --      1.4139                 1.4475                 1.4711
 IR Inten    --      2.2317                 8.5678                 3.4975

                     49                     50                     51
                      A                      A                      A
 Frequencies --   1653.8261              1659.3258              2958.9269
 Red. masses --      1.0878                 1.0880                 1.0714
 Frc consts  --      1.7530                 1.7650                 5.5265
 IR Inten    --     34.6795                29.6178               138.5675

                     52                     53                     54
                      A                      A                      A
 Frequencies --   2986.6693              3008.4586              3014.0148
 Red. masses --      1.0809                 1.0638                 1.0628
 Frc consts  --      5.6809                 5.6727                 5.6884
 IR Inten    --     26.8607                12.0837                96.7085

                     55                     56                     57
                      A                      A                      A
 Frequencies --   3026.2596              3033.0708              3043.5459
 Red. masses --      1.0614                 1.0401                 1.0897
 Frc consts  --      5.7271                 5.6378                 5.9473
 IR Inten    --     65.5961                26.9282                92.5877

                     58                     59                     60
                      A                      A                      A
 Frequencies --   3048.4164              3066.7177              3075.7389
 Red. masses --      1.0972                 1.1039                 1.0996
 Frc consts  --      6.0071                 6.1170                 6.1288
 IR Inten    --     56.2004                60.4613               122.6970

                     61                     62                     63
                      A                      A                      A
 Frequencies --   3096.3272              3116.4343              3474.8702
 Red. masses --      1.1008                 1.1004                 1.0504
 Frc consts  --      6.2182                 6.2965                 7.4727
 IR Inten    --     72.3074                55.7095                 1.4744

                     64                     65                     66
                      A                      A                      A
 Frequencies --   3478.5897              3555.5632              3557.7386
 Red. masses --      1.0510                 1.0912                 1.0914
 Frc consts  --      7.4930                 8.1276                 8.1393
 IR Inten    --      1.3269                 0.1121                 0.0233

 - Thermochemistry -
 -------------------
 Temperature   298.150 Kelvin.  Pressure   1.00000 Atm.
 Atom     1 has atomic number  7 and mass  14.00307

 Molecular mass:   116.13135 amu.
 Principal axes and moments of inertia in atomic units:
                           1         2         3
     Eigenvalues --   587.610632019.134532310.57617
           X            0.99999   0.00104   0.00493
           Y           -0.00110   0.99993   0.01154
           Z           -0.00492  -0.01155   0.99992
 This molecule is an asymmetric top.
 Rotational symmetry number  1.
 Warning -- assumption of classical behavior for rotation
           may cause significant error
 Rotational temperatures (Kelvin)      0.14740     0.04290     0.03749
 Rotational constants (GHZ):           3.07132     0.89382     0.78108
 Zero-point vibrational energy     589489.6 (Joules/Mol)
                                  140.89140 (Kcal/Mol)
 Warning -- explicit consideration of  14 degrees of freedom as
           vibrations may cause significant error
 Vibrational temperatures:     57.19   127.34   170.25   189.03   254.25
          (Kelvin)            303.93   352.76   377.84   409.04   470.74
                              550.94   625.38   692.88   731.95  1102.25
                             1163.43  1220.59  1252.06  1286.65  1326.68
                             1348.33  1396.05  1448.50  1489.92  1530.72
                             1555.01  1567.75  1595.04  1672.02  1730.87
                             1734.06  1819.16  1882.35  1896.38  1924.19
                             1958.29  1980.22  2006.62  2011.19  2024.06
                             2040.84  2061.16  2137.57  2154.24  2160.17
                             2167.33  2175.37  2181.46  2379.49  2387.40
                             4257.24  4297.15  4328.50  4336.50  4354.11
                             4363.91  4378.98  4385.99  4412.32  4425.30
                             4454.92  4483.85  4999.56  5004.91  5115.66
                             5118.79

 Zero-point correction=                           0.224525 (Hartree/Particle)
 Thermal correction to Energy=                    0.235178
 Thermal correction to Enthalpy=                  0.236122
 Thermal correction to Gibbs Free Energy=         0.188361
 Sum of electronic and zero-point Energies=           -347.576667
 Sum of electronic and thermal Energies=              -347.566014
 Sum of electronic and thermal Enthalpies=            -347.565070
 Sum of electronic and thermal Free Energies=         -347.612831

                     E (Thermal)             CV                S
                      KCal/Mol        Cal/Mol-Kelvin    Cal/Mol-Kelvin
 Total                  147.576             38.388            100.522
 Electronic               0.000              0.000              0.000
 Translational            0.889              2.981             40.164
 Rotational               0.889              2.981             29.396
 Vibrational            145.799             32.426             30.963
 Vibration     1          0.594              1.981              5.272
 Vibration     2          0.601              1.957              3.693
 Vibration     3          0.608              1.934              3.127
 Vibration     4          0.612              1.922              2.926
 Vibration     5          0.628              1.871              2.363
 Vibration     6          0.643              1.824              2.033
 Vibration     7          0.660              1.771              1.765
 Vibration     8          0.670              1.741              1.644
 Vibration     9          0.683              1.703              1.508
 Vibration    10          0.711              1.621              1.274
 Vibration    11          0.752              1.507              1.028
 Vibration    12          0.795              1.395              0.844
 Vibration    13          0.838              1.291              0.706
 Vibration    14          0.864              1.231              0.637

 Optimization completed.
    -- Stationary point found.
 Normal termination of Gaussian 16 at Thu Jul 18 05:16:42 2024.
 Gaussian 16:  ES64L-G16RevA.03 25-Dec-2016

 ----------------------------------------------------------------------
 # TD(NStates=10, Root=1) B3LYP/6-31G** SCRF=(Solvent=water) volume pop
 =NPA density=current Geom=AllCheck Guess=Read
 ----------------------------------------------------------------------

 Structure from the checkpoint file:  "JZUHIOJYCPIVLQ-LURJTMIESA-N_conf_3_2.chk"
 ----------------------------------
 JZUHIOJYCPIVLQ-LURJTMIESA-N_conf_3
 ----------------------------------
 Charge =  0 Multiplicity = 1

                         Standard orientation:
 ---------------------------------------------------------------------
 Center     Atomic      Atomic             Coordinates (Angstroms)
 Number     Number       Type             X           Y           Z
 ---------------------------------------------------------------------
      1          7           0        2.524387   -1.595221   -0.065428
      2          6           0        2.363790   -0.212924    0.411888
      3          6           0        1.176735    0.497069   -0.264055
      4          6           0        1.177414    1.986180    0.111454
      5          6           0       -0.157500   -0.195724    0.073240
      6          6           0       -1.351187    0.244151   -0.784309
      7          6           0       -2.656055   -0.508160   -0.467565
      8          7           0       -3.226158   -0.308171    0.873953
      9          1           0        3.279815   -2.040024    0.452203
     10          1           0        2.840822   -1.572819   -1.033915
     11          1           0        3.268193    0.401819    0.264836
     12          1           0        2.187205   -0.250050    1.495406
     13          1           0        1.331493    0.422037   -1.352777
     14          1           0        1.037254    2.114683    1.192027
     15          1           0        0.376997    2.534449   -0.393609
     16          1           0        2.126059    2.462314   -0.159733
     17          1           0       -0.378920   -0.019653    1.136363
     18          1           0       -0.016727   -1.277223   -0.040550
     19          1           0       -1.533732    1.321255   -0.668355
     20          1           0       -1.109667    0.086172   -1.845320
     21          1           0       -3.420550   -0.216645   -1.198462
     22          1           0       -2.494796   -1.585987   -0.601978
     23          1           0       -2.552665   -0.611349    1.574986
     24          1           0       -3.347558    0.691212    1.035287
 ---------------------------------------------------------------------

 SCF Done:  E(RB3LYP) =  -347.801191956     A.U. after    1 cycles

 Excitation energies and oscillator strengths:

 Excited State   1:      Singlet-A      7.4123 eV  167.27 nm  f=0.0227  <S**2>=0.000
      32 -> 35        -0.41373
      33 -> 34         0.50097
      33 -> 35         0.21849
      33 -> 36        -0.13361
 This state for optimization and/or second-order correction.
 Total Energy, E(TD-HF/TD-DFT) =  -347.528794770
 Copying the excited state density for this state as the 1-particle RhoCI density.

 Excited State   2:      Singlet-A      7.4259 eV  166.96 nm  f=0.0160  <S**2>=0.000
      32 -> 34        -0.44068
      32 -> 36         0.12960
      33 -> 34        -0.18674
      33 -> 35         0.49417

 Excited State   3:      Singlet-A      8.0682 eV  153.67 nm  f=0.0106  <S**2>=0.000
      32 -> 34         0.42527
      32 -> 35        -0.25889
      33 -> 34        -0.41918
      33 -> 35         0.17922
      33 -> 36        -0.18184

 Excited State   4:      Singlet-A      8.2478 eV  150.32 nm  f=0.0067  <S**2>=0.000
      32 -> 34         0.32909
      32 -> 35         0.36989
      33 -> 34         0.15911
      33 -> 35         0.38142
      33 -> 36         0.26052

 Excited State   5:      Singlet-A      8.3778 eV  147.99 nm  f=0.0079  <S**2>=0.000
      32 -> 35        -0.32098
      32 -> 36        -0.20927
      33 -> 36         0.55918

 Excited State   6:      Singlet-A      8.4321 eV  147.04 nm  f=0.0427  <S**2>=0.000
      32 -> 36         0.16264
      32 -> 39         0.15846
      33 -> 37         0.64439

 Excited State   7:      Singlet-A      8.5273 eV  145.40 nm  f=0.0183  <S**2>=0.000
      32 -> 36         0.48456
      32 -> 37         0.36951
      32 -> 38         0.10899
      33 -> 35        -0.11138
      33 -> 36         0.14165
      33 -> 38         0.12888
      33 -> 39         0.20574

 Excited State   8:      Singlet-A      8.6177 eV  143.87 nm  f=0.0269  <S**2>=0.000
      32 -> 36        -0.36953
      32 -> 37         0.52974
      33 -> 36        -0.14255
      33 -> 37         0.12257
      33 -> 39         0.15047

 Excited State   9:      Singlet-A      8.8733 eV  139.73 nm  f=0.0695  <S**2>=0.000
      32 -> 36        -0.13285
      32 -> 38         0.38155
      33 -> 38         0.51891

 Excited State  10:      Singlet-A      9.2301 eV  134.33 nm  f=0.0353  <S**2>=0.000
      32 -> 37        -0.18688
      32 -> 38         0.36183
      32 -> 39        -0.17311
      33 -> 38        -0.28221
      33 -> 39         0.39568
      33 -> 43        -0.12396

 The electronic state is 1-A.
 Alpha  occ. eigenvalues --  -14.30871 -14.30853 -10.20014 -10.19873 -10.18104
 Alpha  occ. eigenvalues --  -10.17165 -10.16874 -10.16858  -0.87487  -0.87227
 Alpha  occ. eigenvalues --   -0.79061  -0.73315  -0.66311  -0.64636  -0.58218
 Alpha  occ. eigenvalues --   -0.55409  -0.48786  -0.47193  -0.45498  -0.44375
 Alpha  occ. eigenvalues --   -0.43639  -0.41520  -0.40132  -0.38635  -0.37340
 Alpha  occ. eigenvalues --   -0.36613  -0.34101  -0.33737  -0.31683  -0.31376
 Alpha  occ. eigenvalues --   -0.30551  -0.23733  -0.23124
 Alpha virt. eigenvalues --    0.08506   0.08961   0.10552   0.11286   0.13405
 Alpha virt. eigenvalues --    0.14208   0.15341   0.16397   0.16944   0.17462
 Alpha virt. eigenvalues --    0.18113   0.18583   0.19307   0.20750   0.21376

 Mulliken charges:
               1
     1  N   -0.278615
     2  C   -0.065559
     3  C   -0.047672
     4  C   -0.325409
     5  C   -0.126800
     6  C   -0.179030
     7  C   -0.081716
     8  N   -0.407285
     9  H    0.086273
    10  H    0.080873
    11  H    0.087893
    12  H    0.092602
    13  H    0.060659
    14  H    0.103768
    15  H    0.108193
    16  H    0.091503
    17  H    0.042364
    18  H    0.070736
    19  H    0.086519
    20  H    0.098556
    21  H    0.106691
    22  H    0.103432
    23  H    0.144251
    24  H    0.147774
 Sum of Mulliken charges =  -0.00000

 Dipole moment (field-independent basis, Debye):
    X=              0.8667    Y=              0.9407    Z=             -0.3717  Tot=              1.3320
 Quadrupole moment (field-independent basis, Debye-Ang):
   XX=            -58.2829   YY=            -56.1629   ZZ=            -54.4897
   XY=             -1.1837   XZ=              2.9447   YZ=              0.8217

 Summary of Natural Population Analysis:

                                       Natural Population
                Natural  -----------------------------------------------
    Atom  No    Charge         Core      Valence    Rydberg      Total
 -----------------------------------------------------------------------
      N    1   -0.58492      1.99946     5.56701    0.01846     7.58492
      C    2   -0.31788      1.99928     4.29848    0.02013     6.31788
      C    3   -0.26328      1.99921     4.24894    0.01513     6.26328
      C    4   -0.69519      1.99943     4.68649    0.00927     6.69519
      C    5   -0.47323      1.99929     4.45832    0.01562     6.47323
      C    6   -0.47187      1.99930     4.46124    0.01134     6.47187
      C    7   -0.30158      1.99936     4.28395    0.01827     6.30158
      N    8   -0.70379      1.99955     5.68796    0.01628     7.70379
      H    9    0.25335      0.00000     0.68277    0.06388     0.74665
      H   10    0.24965      0.00000     0.68352    0.06683     0.75035
      H   11    0.22927      0.00000     0.74743    0.02330     0.77073
      H   12    0.22119      0.00000     0.76444    0.01437     0.77881
      H   13    0.22179      0.00000     0.76243    0.01578     0.77821
      H   14    0.22963      0.00000     0.76807    0.00230     0.77037
      H   15    0.23895      0.00000     0.75958    0.00147     0.76105
      H   16    0.22481      0.00000     0.77018    0.00501     0.77519
      H   17    0.19471      0.00000     0.78606    0.01922     0.80529
      H   18    0.22489      0.00000     0.76534    0.00977     0.77511
      H   19    0.22207      0.00000     0.76745    0.01048     0.77793
      H   20    0.23878      0.00000     0.75610    0.00512     0.76122
      H   21    0.23615      0.00000     0.75632    0.00753     0.76385
      H   22    0.22650      0.00000     0.76431    0.00919     0.77350
      H   23    0.29664      0.00000     0.65948    0.04387     0.70336
      H   24    0.30335      0.00000     0.65210    0.04455     0.69665
 =======================================================================
   * Total *   -0.00000     15.99487    49.53798    0.46715    66.00000

 Normal termination of Gaussian 16 at Thu Jul 18 05:24:16 2024.
