 Gaussian 16, Revision A.03,

 -------------------------------------------------------
 # opt=CalcFc B3LYP/6-31G** SCRF=(Solvent=water) scf=xqc
 -------------------------------------------------------

 ----------------------------------
 JZUHIOJYCPIVLQ-LURJTMIESA-N_conf_0
 ----------------------------------
 Symbolic Z-matrix:
 Charge =  0 Multiplicity = 1

 SCF Done:  E(RB3LYP) =  -347.799277496     A.U. after   11 cycles
 SCF Done:  E(RB3LYP) =  -347.801636388     A.U. after    9 cycles
 SCF Done:  E(RB3LYP) =  -347.801679113     A.U. after    8 cycles
 SCF Done:  E(RB3LYP) =  -347.801679398     A.U. after    6 cycles
 Optimization completed.
    -- Stationary point found.
 Normal termination of Gaussian 16 at Thu Jul 18 04:47:13 2024.

 ----------------------------------------------------------------------
 # freq B3LYP/6-31G** SCRF=(Solvent=water) volume NMR pop=NPA density=c
 urrent Geom=AllCheck Guess=Read
 ----------------------------------------------------------------------

 Structure from the checkpoint file:  "JZUHIOJYCPIVLQ-LURJTMIESA-N_conf_0_1.chk"
 ----------------------------------
 JZUHIOJYCPIVLQ-LURJTMIESA-N_conf_0
 ----------------------------------
 Charge =  0 Multiplicity = 1

 SCF Done:  E(RB3LYP) =  -347.801679398     A.U. after    1 cycles

      1  N    Isotropic =   237.8143   Anisotropy =    39.3643

      2  C    Isotropic =   139.8567   Anisotropy =    36.9021

      3  C    Isotropic =   149.7651   Anisotropy =    26.1572

      4  C    Isotropic =   175.9986   Anisotropy =    24.4835

      5  C    Isotropic =   156.8042   Anisotropy =    29.6769

      6  C    Isotropic =   158.3683   Anisotropy =    28.8494

      7  C    Isotropic =   145.9858   Anisotropy =    38.1571

      8  N    Isotropic =   232.6588   Anisotropy =    33.2753

      9  H    Isotropic =    30.8499   Anisotropy =    12.2253

     10  H    Isotropic =    31.7982   Anisotropy =    13.5454

     11  H    Isotropic =    29.2136   Anisotropy =     5.9031

     12  H    Isotropic =    29.7090   Anisotropy =     5.3773

     13  H    Isotropic =    30.4656   Anisotropy =     5.3630

     14  H    Isotropic =    30.4884   Anisotropy =     8.3794

     15  H    Isotropic =    30.5974   Anisotropy =     7.9151

     16  H    Isotropic =    31.5874   Anisotropy =     8.7966

     17  H    Isotropic =    30.8496   Anisotropy =     4.7055

     18  H    Isotropic =    30.6044   Anisotropy =     5.6452

     19  H    Isotropic =    30.1993   Anisotropy =     4.2803

     20  H    Isotropic =    30.4761   Anisotropy =     5.1616

     21  H    Isotropic =    28.9007   Anisotropy =     5.7657

     22  H    Isotropic =    29.3186   Anisotropy =     5.2295

     23  H    Isotropic =    31.0537   Anisotropy =    15.5882

     24  H    Isotropic =    31.5781   Anisotropy =    12.0448

  Exact polarizability: 111.519  -1.660  97.688   1.355   0.689  92.778
 Approx polarizability: 109.453  -1.526 105.904   0.600   1.321 103.834

                      1                      2                      3
                      A                      A                      A
 Frequencies --     54.4583                69.6614               103.6574
 Red. masses --      2.4417                 2.0812                 2.7457
 Frc consts  --      0.0043                 0.0060                 0.0174
 IR Inten    --      5.1745                 5.2011                 0.6215

                      4                      5                      6
                      A                      A                      A
 Frequencies --    124.4262               142.4720               232.9006
 Red. masses --      2.4894                 1.9360                 1.1128
 Frc consts  --      0.0227                 0.0232                 0.0356
 IR Inten    --      1.8109                 1.9146                 9.7902

                      7                      8                      9
                      A                      A                      A
 Frequencies --    243.6661               272.5620               293.7776
 Red. masses --      1.5148                 1.7612                 3.1723
 Frc consts  --      0.0530                 0.0771                 0.1613
 IR Inten    --     38.3424                40.6370                 1.2853

                     10                     11                     12
                      A                      A                      A
 Frequencies --    308.9622               343.0083               420.7874
 Red. masses --      1.3257                 2.4364                 1.8541
 Frc consts  --      0.0746                 0.1689                 0.1934
 IR Inten    --     35.7655                19.8761                 3.7079

                     13                     14                     15
                      A                      A                      A
 Frequencies --    478.9113               526.7598               755.0778
 Red. masses --      2.7053                 2.6679                 1.1173
 Frc consts  --      0.3656                 0.4362                 0.3753
 IR Inten    --     22.1774                 3.2093                 4.1910

                     16                     17                     18
                      A                      A                      A
 Frequencies --    812.3535               840.6643               873.4237
 Red. masses --      2.1296                 1.1992                 1.3589
 Frc consts  --      0.8280                 0.4993                 0.6108
 IR Inten    --     37.1646                18.0557                25.5186

                     19                     20                     21
                      A                      A                      A
 Frequencies --    907.9851               916.5943               945.0166
 Red. masses --      1.3440                 1.8505                 1.7861
 Frc consts  --      0.6528                 0.9160                 0.9398
 IR Inten    --    177.8321               117.3276               143.8379

                     22                     23                     24
                      A                      A                      A
 Frequencies --    980.9987              1006.6380              1041.8956
 Red. masses --      2.1722                 1.4418                 2.3536
 Frc consts  --      1.2317                 0.8608                 1.5053
 IR Inten    --      4.9011                11.7225                 1.6676

                     25                     26                     27
                      A                      A                      A
 Frequencies --   1073.2986              1089.3463              1094.5574
 Red. masses --      1.4917                 1.8391                 2.9620
 Frc consts  --      1.0125                 1.2859                 2.0908
 IR Inten    --     12.1715                 2.6210                 9.8157

                     28                     29                     30
                      A                      A                      A
 Frequencies --   1118.5149              1159.1804              1194.1624
 Red. masses --      1.8537                 2.0076                 1.5763
 Frc consts  --      1.3664                 1.5894                 1.3244
 IR Inten    --     10.2249                22.5935                 4.9090

                     31                     32                     33
                      A                      A                      A
 Frequencies --   1222.8092              1260.1924              1306.1224
 Red. masses --      1.5594                 1.4167                 1.2430
 Frc consts  --      1.3738                 1.3256                 1.2494
 IR Inten    --      1.8623                 4.4079                 0.2395

                     34                     35                     36
                      A                      A                      A
 Frequencies --   1316.8255              1332.3486              1351.0206
 Red. masses --      1.2552                 1.0699                 1.2587
 Frc consts  --      1.2824                 1.1190                 1.3536
 IR Inten    --      1.6358                 0.1039                 4.3842

                     37                     38                     39
                      A                      A                      A
 Frequencies --   1373.0881              1391.5793              1401.7205
 Red. masses --      1.3672                 1.2912                 1.5130
 Frc consts  --      1.5187                 1.4732                 1.7515
 IR Inten    --      2.0134                11.7995                 0.2048

                     40                     41                     42
                      A                      A                      A
 Frequencies --   1407.1465              1423.3804              1436.9501
 Red. masses --      1.1758                 1.3093                 1.4865
 Frc consts  --      1.3717                 1.5629                 1.8084
 IR Inten    --      0.3522                 8.8448                19.9277

                     43                     44                     45
                      A                      A                      A
 Frequencies --   1486.3448              1494.0088              1500.7314
 Red. masses --      1.0830                 1.0878                 1.0606
 Frc consts  --      1.4097                 1.4305                 1.4074
 IR Inten    --      0.3227                 0.3595                 3.4606

                     46                     47                     48
                      A                      A                      A
 Frequencies --   1504.8757              1516.6885              1527.5268
 Red. masses --      1.0869                 1.0454                 1.0924
 Frc consts  --      1.4502                 1.4168                 1.5018
 IR Inten    --      0.9030                10.8317                 1.7547

                     49                     50                     51
                      A                      A                      A
 Frequencies --   1655.7315              1659.4406              2953.7836
 Red. masses --      1.0872                 1.0887                 1.0721
 Frc consts  --      1.7561                 1.7664                 5.5113
 IR Inten    --     34.8269                31.0869               116.4768

                     52                     53                     54
                      A                      A                      A
 Frequencies --   2989.8787              3004.9613              3019.7288
 Red. masses --      1.0823                 1.0590                 1.0588
 Frc consts  --      5.7004                 5.6341                 5.6883
 IR Inten    --     28.8574                34.7454                88.8487

                     55                     56                     57
                      A                      A                      A
 Frequencies --   3025.2679              3034.0717              3037.9044
 Red. masses --      1.0598                 1.0403                 1.1001
 Frc consts  --      5.7146                 5.6425                 5.9820
 IR Inten    --     76.4572                34.2787                27.3512

                     58                     59                     60
                      A                      A                      A
 Frequencies --   3045.4379              3061.6246              3072.2270
 Red. masses --      1.0901                 1.1052                 1.1045
 Frc consts  --      5.9569                 6.1038                 6.1421
 IR Inten    --     27.9566                61.8274               195.3035

                     61                     62                     63
                      A                      A                      A
 Frequencies --   3099.5482              3116.3472              3474.7954
 Red. masses --      1.0992                 1.1002                 1.0510
 Frc consts  --      6.2219                 6.2952                 7.4764
 IR Inten    --     65.2631                50.5189                 2.2073

                     64                     65                     66
                      A                      A                      A
 Frequencies --   3479.4352              3552.2595              3561.8386
 Red. masses --      1.0504                 1.0912                 1.0912
 Frc consts  --      7.4922                 8.1126                 8.1566
 IR Inten    --      1.2658                 0.2642                 0.0607

 - Thermochemistry -
 -------------------
 Temperature   298.150 Kelvin.  Pressure   1.00000 Atm.
 Atom     1 has atomic number  7 and mass  14.00307

 Molecular mass:   116.13135 amu.
 Principal axes and moments of inertia in atomic units:
                           1         2         3
     Eigenvalues --   322.458412663.260942844.71140
           X            0.99996  -0.00693   0.00495
           Y            0.00693   0.99998  -0.00128
           Z           -0.00494   0.00131   0.99999
 This molecule is an asymmetric top.
 Rotational symmetry number  1.
 Rotational temperatures (Kelvin)      0.26860     0.03252     0.03045
 Rotational constants (GHZ):           5.59682     0.67764     0.63442
 Zero-point vibrational energy     589300.6 (Joules/Mol)
                                  140.84621 (Kcal/Mol)
 Warning -- explicit consideration of  14 degrees of freedom as
           vibrations may cause significant error
 Vibrational temperatures:     78.35   100.23   149.14   179.02   204.99
          (Kelvin)            335.09   350.58   392.16   422.68   444.53
                              493.51   605.42   689.05   757.89  1086.39
                             1168.80  1209.53  1256.66  1306.39  1318.77
                             1359.67  1411.44  1448.33  1499.06  1544.24
                             1567.33  1574.82  1609.29  1667.80  1718.13
                             1759.35  1813.14  1879.22  1894.62  1916.95
                             1943.82  1975.57  2002.17  2016.76  2024.57
                             2047.93  2067.45  2138.52  2149.55  2159.22
                             2165.18  2182.18  2197.77  2382.23  2387.56
                             4249.84  4301.77  4323.47  4344.72  4352.69
                             4365.35  4370.87  4381.71  4404.99  4420.25
                             4459.56  4483.73  4999.46  5006.13  5110.91
                             5124.69

 Zero-point correction=                           0.224453 (Hartree/Particle)
 Thermal correction to Energy=                    0.235217
 Thermal correction to Enthalpy=                  0.236161
 Thermal correction to Gibbs Free Energy=         0.188172
 Sum of electronic and zero-point Energies=           -347.577227
 Sum of electronic and thermal Energies=              -347.566462
 Sum of electronic and thermal Enthalpies=            -347.565518
 Sum of electronic and thermal Free Energies=         -347.613507

                     E (Thermal)             CV                S
                      KCal/Mol        Cal/Mol-Kelvin    Cal/Mol-Kelvin
 Total                  147.601             38.455            101.001
 Electronic               0.000              0.000              0.000
 Translational            0.889              2.981             40.164
 Rotational               0.889              2.981             29.281
 Vibrational            145.823             32.494             31.556
 Vibration     1          0.596              1.976              4.649
 Vibration     2          0.598              1.969              4.163
 Vibration     3          0.605              1.946              3.384
 Vibration     4          0.610              1.929              3.030
 Vibration     5          0.616              1.911              2.770
 Vibration     6          0.654              1.791              1.856
 Vibration     7          0.659              1.773              1.776
 Vibration     8          0.676              1.724              1.580
 Vibration     9          0.689              1.685              1.452
 Vibration    10          0.698              1.657              1.368
 Vibration    11          0.722              1.589              1.198
 Vibration    12          0.783              1.425              0.889
 Vibration    13          0.835              1.297              0.713
 Vibration    14          0.882              1.191              0.594

 Optimization completed.
    -- Stationary point found.
 Normal termination of Gaussian 16 at Thu Jul 18 04:52:48 2024.
 Gaussian 16:  ES64L-G16RevA.03 25-Dec-2016

 ----------------------------------------------------------------------
 # TD(NStates=10, Root=1) B3LYP/6-31G** SCRF=(Solvent=water) volume pop
 =NPA density=current Geom=AllCheck Guess=Read
 ----------------------------------------------------------------------

 Structure from the checkpoint file:  "JZUHIOJYCPIVLQ-LURJTMIESA-N_conf_0_2.chk"
 ----------------------------------
 JZUHIOJYCPIVLQ-LURJTMIESA-N_conf_0
 ----------------------------------
 Charge =  0 Multiplicity = 1

                         Standard orientation:
 ---------------------------------------------------------------------
 Center     Atomic      Atomic             Coordinates (Angstroms)
 Number     Number       Type             X           Y           Z
 ---------------------------------------------------------------------
      1          7           0       -3.647978   -0.430090   -0.300059
      2          6           0       -2.317776   -0.775645    0.217708
      3          6           0       -1.134304    0.123303   -0.208222
      4          6           0       -1.329278    1.571791    0.260943
      5          6           0        0.188582   -0.485189    0.297576
      6          6           0        1.461561    0.183270   -0.237367
      7          6           0        2.739925   -0.522220    0.220524
      8          7           0        3.932082    0.134870   -0.340106
      9          1           0       -3.913171    0.496954    0.025905
     10          1           0       -3.602348   -0.356896   -1.315700
     11          1           0       -2.100499   -1.806214   -0.091559
     12          1           0       -2.379604   -0.789212    1.314685
     13          1           0       -1.106431    0.120024   -1.309790
     14          1           0       -2.276489    1.984385   -0.101666
     15          1           0       -0.533589    2.228711   -0.101835
     16          1           0       -1.336533    1.627942    1.356916
     17          1           0        0.196643   -0.458247    1.397291
     18          1           0        0.211079   -1.548828    0.020427
     19          1           0        1.503795    1.231352    0.087677
     20          1           0        1.442494    0.199332   -1.334988
     21          1           0        2.745702   -0.574622    1.323432
     22          1           0        2.729848   -1.559637   -0.137756
     23          1           0        4.763152   -0.364929   -0.028629
     24          1           0        4.014971    1.064560    0.069772
 ---------------------------------------------------------------------

 SCF Done:  E(RB3LYP) =  -347.801679398     A.U. after    1 cycles

 Excitation energies and oscillator strengths:

 Excited State   1:      Singlet-A      7.3384 eV  168.95 nm  f=0.0199  <S**2>=0.000
      32 -> 34        -0.27192
      33 -> 34         0.61301
      33 -> 35        -0.11475
      33 -> 36        -0.13459
 This state for optimization and/or second-order correction.
 Total Energy, E(TD-HF/TD-DFT) =  -347.531999858
 Copying the excited state density for this state as the 1-particle RhoCI density.

 Excited State   2:      Singlet-A      7.4715 eV  165.94 nm  f=0.0145  <S**2>=0.000
      32 -> 34         0.18072
      32 -> 35         0.57086
      33 -> 35         0.35443

 Excited State   3:      Singlet-A      8.0571 eV  153.88 nm  f=0.0014  <S**2>=0.000
      32 -> 34         0.58037
      32 -> 35        -0.15492
      32 -> 36         0.14276
      33 -> 34         0.28541
      33 -> 36         0.15617

 Excited State   4:      Singlet-A      8.2819 eV  149.70 nm  f=0.0166  <S**2>=0.000
      32 -> 34        -0.15368
      32 -> 35        -0.26674
      32 -> 36        -0.12738
      33 -> 34         0.14899
      33 -> 35         0.48029
      33 -> 36         0.33073
      33 -> 37         0.13074

 Excited State   5:      Singlet-A      8.4111 eV  147.41 nm  f=0.0166  <S**2>=0.000
      32 -> 35         0.19950
      32 -> 36        -0.17394
      33 -> 35        -0.27600
      33 -> 36         0.52141
      33 -> 37        -0.18842
      33 -> 39        -0.14682

 Excited State   6:      Singlet-A      8.4965 eV  145.92 nm  f=0.0327  <S**2>=0.000
      32 -> 35         0.12409
      32 -> 37        -0.19837
      33 -> 35        -0.20571
      33 -> 37         0.58191
      33 -> 40         0.11343

 Excited State   7:      Singlet-A      8.5865 eV  144.39 nm  f=0.0093  <S**2>=0.000
      32 -> 34        -0.12279
      32 -> 36         0.56614
      32 -> 37        -0.21199
      32 -> 39         0.15739
      33 -> 36         0.18248
      33 -> 39         0.16452

 Excited State   8:      Singlet-A      8.7451 eV  141.78 nm  f=0.0314  <S**2>=0.000
      32 -> 36         0.20825
      32 -> 37         0.44711
      32 -> 38         0.27263
      32 -> 40        -0.16972
      33 -> 37         0.17254
      33 -> 38         0.24148
      33 -> 40        -0.11598

 Excited State   9:      Singlet-A      8.8964 eV  139.36 nm  f=0.0266  <S**2>=0.000
      32 -> 37        -0.13972
      32 -> 38        -0.15226
      32 -> 39        -0.10466
      33 -> 38         0.58929
      33 -> 39         0.21522
      33 -> 40         0.13383

 Excited State  10:      Singlet-A      9.0080 eV  137.64 nm  f=0.0304  <S**2>=0.000
      32 -> 37        -0.36878
      32 -> 38         0.53063
      33 -> 37        -0.13389
      33 -> 39        -0.12862

 The electronic state is 1-A.
 Alpha  occ. eigenvalues --  -14.30954 -14.30818 -10.20055 -10.19909 -10.18072
 Alpha  occ. eigenvalues --  -10.17514 -10.17391 -10.16914  -0.87528  -0.87246
 Alpha  occ. eigenvalues --   -0.79385  -0.73392  -0.67040  -0.63984  -0.58212
 Alpha  occ. eigenvalues --   -0.55660  -0.48881  -0.47903  -0.45736  -0.44914
 Alpha  occ. eigenvalues --   -0.43377  -0.41601  -0.40681  -0.38244  -0.36798
 Alpha  occ. eigenvalues --   -0.35438  -0.34899  -0.33496  -0.32477  -0.31570
 Alpha  occ. eigenvalues --   -0.31321  -0.23670  -0.23251
 Alpha virt. eigenvalues --    0.08053   0.09055   0.10862   0.11657   0.12623
 Alpha virt. eigenvalues --    0.13595   0.15006   0.16066   0.16787   0.16968
 Alpha virt. eigenvalues --    0.17849   0.19497   0.20157   0.20414   0.21884

 Mulliken charges:
               1
     1  N   -0.090515
     2  C   -0.100254
     3  C   -0.035509
     4  C   -0.246563
     5  C   -0.169050
     6  C   -0.167232
     7  C   -0.053934
     8  N   -0.643962
     9  H    0.000627
    10  H    0.035614
    11  H    0.112035
    12  H    0.113859
    13  H    0.049969
    14  H   -0.008533
    15  H    0.059492
    16  H    0.079732
    17  H    0.100362
    18  H    0.090278
    19  H    0.087772
    20  H    0.094465
    21  H    0.084858
    22  H    0.102911
    23  H    0.253248
    24  H    0.250330
 Sum of Mulliken charges =  -0.00000

 Dipole moment (field-independent basis, Debye):
    X=              0.6713    Y=             -2.0255    Z=              2.1220  Tot=              3.0094
 Quadrupole moment (field-independent basis, Debye-Ang):
   XX=            -51.8530   YY=            -55.4225   ZZ=            -57.2568
   XY=              4.5489   XZ=              5.8184   YZ=              0.0783

 Summary of Natural Population Analysis:

                                       Natural Population
                Natural  -----------------------------------------------
    Atom  No    Charge         Core      Valence    Rydberg      Total
 -----------------------------------------------------------------------
      N    1   -0.39558      1.99937     5.37161    0.02460     7.39558
      C    2   -0.35751      1.99929     4.33681    0.02140     6.35751
      C    3   -0.23481      1.99918     4.22288    0.01276     6.23481
      C    4   -0.70214      1.99940     4.69140    0.01133     6.70214
      C    5   -0.46335      1.99929     4.45039    0.01368     6.46335
      C    6   -0.47065      1.99931     4.45909    0.01225     6.47065
      C    7   -0.25697      1.99935     4.24426    0.01336     6.25697
      N    8   -0.92539      1.99968     5.91101    0.01471     7.92539
      H    9    0.18954      0.00000     0.73153    0.07894     0.81046
      H   10    0.22251      0.00000     0.69968    0.07781     0.77749
      H   11    0.24221      0.00000     0.74102    0.01677     0.75779
      H   12    0.23952      0.00000     0.74485    0.01563     0.76048
      H   13    0.21063      0.00000     0.76099    0.02838     0.78937
      H   14    0.15212      0.00000     0.81395    0.03394     0.84788
      H   15    0.20138      0.00000     0.78622    0.01239     0.79862
      H   16    0.21993      0.00000     0.77127    0.00880     0.78007
      H   17    0.23673      0.00000     0.75973    0.00354     0.76327
      H   18    0.23037      0.00000     0.76434    0.00529     0.76963
      H   19    0.22321      0.00000     0.76963    0.00716     0.77679
      H   20    0.23340      0.00000     0.76229    0.00430     0.76660
      H   21    0.20394      0.00000     0.79324    0.00281     0.79606
      H   22    0.22472      0.00000     0.77296    0.00232     0.77528
      H   23    0.39150      0.00000     0.60581    0.00269     0.60850
      H   24    0.38347      0.00000     0.61345    0.00308     0.61653
 =======================================================================
   * Total *   -0.00123     15.99487    49.57843    0.42793    66.00123

 Normal termination of Gaussian 16 at Thu Jul 18 04:59:53 2024.
