 Gaussian 16, Revision A.03,

 -------------------------------------------------------
 # opt=CalcFc B3LYP/6-31G** SCRF=(Solvent=water) scf=xqc
 -------------------------------------------------------

 ----------------------------------
 FTVFPPFZRRKJIH-UHFFFAOYSA-N_conf_0
 ----------------------------------
 Symbolic Z-matrix:
 Charge =  0 Multiplicity = 1

 SCF Done:  E(RB3LYP) =  -464.530306125     A.U. after   11 cycles
 SCF Done:  E(RB3LYP) =  -464.534623406     A.U. after    9 cycles
 SCF Done:  E(RB3LYP) =  -464.534905478     A.U. after    9 cycles
 SCF Done:  E(RB3LYP) =  -464.534919718     A.U. after    8 cycles
 SCF Done:  E(RB3LYP) =  -464.534920247     A.U. after    6 cycles
 Optimization completed.
    -- Stationary point found.
 Normal termination of Gaussian 16 at Wed Jul 17 17:15:24 2024.

 ----------------------------------------------------------------------
 # freq B3LYP/6-31G** SCRF=(Solvent=water) volume NMR pop=NPA density=c
 urrent Geom=AllCheck Guess=Read
 ----------------------------------------------------------------------

 Structure from the checkpoint file:  "FTVFPPFZRRKJIH-UHFFFAOYSA-N_conf_0_1.chk"
 ----------------------------------
 FTVFPPFZRRKJIH-UHFFFAOYSA-N_conf_0
 ----------------------------------
 Charge =  0 Multiplicity = 1

 SCF Done:  E(RB3LYP) =  -464.534920247     A.U. after    1 cycles

      1  C    Isotropic =   159.9641   Anisotropy =    38.7475

      2  C    Isotropic =   139.4403   Anisotropy =    23.9944

      3  C    Isotropic =   154.9558   Anisotropy =    52.6234

      4  C    Isotropic =   149.6612   Anisotropy =    16.0766

      5  C    Isotropic =   142.1514   Anisotropy =    27.8236

      6  N    Isotropic =   215.3216   Anisotropy =    37.5287

      7  C    Isotropic =   146.4641   Anisotropy =    18.4907

      8  C    Isotropic =   139.4666   Anisotropy =    24.2680

      9  C    Isotropic =   160.1314   Anisotropy =    37.7069

     10  C    Isotropic =   154.9815   Anisotropy =    52.6039

     11  N    Isotropic =   179.9463   Anisotropy =    40.7419

     12  H    Isotropic =    29.9843   Anisotropy =     4.7586

     13  H    Isotropic =    30.8209   Anisotropy =     7.5041

     14  H    Isotropic =    30.4873   Anisotropy =     9.0470

     15  H    Isotropic =    30.7785   Anisotropy =     8.0606

     16  H    Isotropic =    30.9198   Anisotropy =     8.2532

     17  H    Isotropic =    30.5677   Anisotropy =     9.0077

     18  H    Isotropic =    30.1601   Anisotropy =     6.7948

     19  H    Isotropic =    30.0398   Anisotropy =     6.4740

     20  H    Isotropic =    28.6724   Anisotropy =     8.2826

     21  H    Isotropic =    30.4556   Anisotropy =     8.6351

     22  H    Isotropic =    31.0825   Anisotropy =    13.9609

     23  H    Isotropic =    30.2570   Anisotropy =     6.0833

     24  H    Isotropic =    30.1981   Anisotropy =     6.4675

     25  H    Isotropic =    30.5268   Anisotropy =     9.1031

     26  H    Isotropic =    29.7796   Anisotropy =     5.0458

     27  H    Isotropic =    30.8339   Anisotropy =     7.3686

     28  H    Isotropic =    30.9449   Anisotropy =     8.2156

     29  H    Isotropic =    30.6341   Anisotropy =     8.9994

     30  H    Isotropic =    30.7822   Anisotropy =     7.9872

     31  H    Isotropic =    31.5387   Anisotropy =     8.1900

  Exact polarizability: 148.819  -2.055 140.821  -0.094  -1.978 134.544
 Approx polarizability: 152.546  -1.703 151.170   0.296  -0.895 146.991

                      1                      2                      3
                      A                      A                      A
 Frequencies --    121.0735               129.4047               137.1437
 Red. masses --      2.5991                 2.5965                 1.1056
 Frc consts  --      0.0224                 0.0256                 0.0123
 IR Inten    --      4.2503                 1.5713                24.2983

                      4                      5                      6
                      A                      A                      A
 Frequencies --    204.0052               239.9733               242.8986
 Red. masses --      3.0511                 1.3964                 1.2162
 Frc consts  --      0.0748                 0.0474                 0.0423
 IR Inten    --      0.0676                 2.4310                 0.1522

                      7                      8                      9
                      A                      A                      A
 Frequencies --    248.1517               251.9970               283.3797
 Red. masses --      1.4557                 1.3936                 1.1071
 Frc consts  --      0.0528                 0.0521                 0.0524
 IR Inten    --     19.4494                24.2851                 2.5133

                     10                     11                     12
                      A                      A                      A
 Frequencies --    316.6460               320.0385               324.6851
 Red. masses --      1.4854                 2.2261                 2.6729
 Frc consts  --      0.0877                 0.1343                 0.1660
 IR Inten    --      3.5625                 0.9680                 6.3287

                     13                     14                     15
                      A                      A                      A
 Frequencies --    353.7242               355.4938               405.5406
 Red. masses --      2.8040                 2.5723                 1.9775
 Frc consts  --      0.2067                 0.1915                 0.1916
 IR Inten    --      3.3448                 3.1845                 0.5976

                     16                     17                     18
                      A                      A                      A
 Frequencies --    439.2959               459.7184               465.9543
 Red. masses --      2.0401                 2.1708                 1.7506
 Frc consts  --      0.2320                 0.2703                 0.2239
 IR Inten    --      5.8939                 0.2432                27.0613

                     19                     20                     21
                      A                      A                      A
 Frequencies --    521.6625               534.6383               642.4164
 Red. masses --      2.8220                 2.8861                 3.7734
 Frc consts  --      0.4525                 0.4861                 0.9175
 IR Inten    --      5.2859                 0.2993                 1.9673

                     22                     23                     24
                      A                      A                      A
 Frequencies --    695.8550               759.2734               795.5602
 Red. masses --      1.9433                 2.9788                 3.4450
 Frc consts  --      0.5544                 1.0118                 1.2847
 IR Inten    --    149.6047                 0.2107                 5.1699

                     25                     26                     27
                      A                      A                      A
 Frequencies --    851.0649               874.6518               900.4429
 Red. masses --      1.9702                 1.7484                 2.2954
 Frc consts  --      0.8408                 0.7881                 1.0965
 IR Inten    --     16.3387                54.4348                15.3994

                     28                     29                     30
                      A                      A                      A
 Frequencies --    907.7078               917.1120               921.5934
 Red. masses --      1.9986                 1.7486                 1.5041
 Frc consts  --      0.9702                 0.8666                 0.7526
 IR Inten    --     29.1768                99.0414                 4.5028

                     31                     32                     33
                      A                      A                      A
 Frequencies --    931.2182               959.8469               994.6169
 Red. masses --      1.4360                 1.6482                 1.9082
 Frc consts  --      0.7337                 0.8947                 1.1122
 IR Inten    --      1.1849                43.2088                 7.3120

                     34                     35                     36
                      A                      A                      A
 Frequencies --   1017.7698              1020.7957              1035.5585
 Red. masses --      1.4772                 1.3557                 1.7217
 Frc consts  --      0.9016                 0.8323                 1.0878
 IR Inten    --      2.4483                 3.1419                10.7810

                     37                     38                     39
                      A                      A                      A
 Frequencies --   1073.1952              1093.8117              1132.6170
 Red. masses --      1.8892                 1.6939                 1.5311
 Frc consts  --      1.2820                 1.1940                 1.1572
 IR Inten    --     14.6093                10.0835                31.3642

                     40                     41                     42
                      A                      A                      A
 Frequencies --   1152.1144              1182.3934              1208.4715
 Red. masses --      1.4424                 2.0427                 2.6194
 Frc consts  --      1.1280                 1.6826                 2.2538
 IR Inten    --     63.1904                 7.3882                 3.6731

                     43                     44                     45
                      A                      A                      A
 Frequencies --   1217.8897              1244.9423              1275.9096
 Red. masses --      2.7155                 2.3003                 1.8472
 Frc consts  --      2.3731                 2.1006                 1.7717
 IR Inten    --     28.5514                31.0912                79.2989

                     46                     47                     48
                      A                      A                      A
 Frequencies --   1300.0368              1336.3047              1339.4866
 Red. masses --      2.8473                 1.3341                 1.5440
 Frc consts  --      2.8352                 1.4037                 1.6322
 IR Inten    --     22.5317                 0.2262                20.5083

                     49                     50                     51
                      A                      A                      A
 Frequencies --   1379.0431              1391.7129              1401.1988
 Red. masses --      1.3213                 1.5334                 1.2583
 Frc consts  --      1.4805                 1.7499                 1.4556
 IR Inten    --     12.0434                 3.8143                 0.4877

                     52                     53                     54
                      A                      A                      A
 Frequencies --   1406.8341              1419.5667              1428.2996
 Red. masses --      1.2722                 1.2358                 1.2387
 Frc consts  --      1.4835                 1.4673                 1.4889
 IR Inten    --     13.4454                15.1560                 6.2423

                     55                     56                     57
                      A                      A                      A
 Frequencies --   1438.5027              1468.2286              1476.5485
 Red. masses --      1.2566                 1.1233                 1.1157
 Frc consts  --      1.5320                 1.4267                 1.4331
 IR Inten    --     12.5285                19.1061                 1.4576

                     58                     59                     60
                      A                      A                      A
 Frequencies --   1483.0678              1483.6862              1489.8670
 Red. masses --      1.0643                 1.0777                 1.0482
 Frc consts  --      1.3792                 1.3978                 1.3709
 IR Inten    --      0.4920                 1.3808                 1.2774

                     61                     62                     63
                      A                      A                      A
 Frequencies --   1492.1234              1496.8613              1508.1489
 Red. masses --      1.0567                 1.0554                 1.0584
 Frc consts  --      1.3861                 1.3933                 1.4183
 IR Inten    --      0.8895                10.7052                 1.8653

                     64                     65                     66
                      A                      A                      A
 Frequencies --   1510.0283              1520.0686              1525.8444
 Red. masses --      1.0621                 1.0647                 1.1963
 Frc consts  --      1.4269                 1.4495                 1.6410
 IR Inten    --      1.1742                15.2174                12.4266

                     67                     68                     69
                      A                      A                      A
 Frequencies --   1658.7516              3017.2204              3028.8379
 Red. masses --      1.0906                 1.0769                 1.0621
 Frc consts  --      1.7680                 5.7760                 5.7407
 IR Inten    --     47.2627                20.1284                53.2395

                     70                     71                     72
                      A                      A                      A
 Frequencies --   3032.6353              3033.0861              3040.6771
 Red. masses --      1.0392                 1.0369                 1.0476
 Frc consts  --      5.6312                 5.6201                 5.7069
 IR Inten    --     38.0028                35.7181               107.6008

                     73                     74                     75
                      A                      A                      A
 Frequencies --   3042.0945              3048.6005              3071.6018
 Red. masses --      1.0441                 1.0568                 1.1026
 Frc consts  --      5.6928                 5.7868                 6.1289
 IR Inten    --     89.4433                20.4324                57.0202

                     76                     77                     78
                      A                      A                      A
 Frequencies --   3089.9289              3097.0250              3097.9806
 Red. masses --      1.1027                 1.1019                 1.1020
 Frc consts  --      6.2030                 6.2271                 6.2314
 IR Inten    --     37.7130                 3.4266                 6.7216

                     79                     80                     81
                      A                      A                      A
 Frequencies --   3103.2831              3104.4968              3123.0380
 Red. masses --      1.1010                 1.1009                 1.1027
 Frc consts  --      6.2472                 6.2515                 6.3368
 IR Inten    --     90.5656               134.2948                45.2834

                     82                     83                     84
                      A                      A                      A
 Frequencies --   3123.4467              3143.2472              3161.7079
 Red. masses --      1.1026                 1.0967                 1.0926
 Frc consts  --      6.3380                 6.3841                 6.4348
 IR Inten    --     69.1016                71.3212                66.1637

                     85                     86                     87
                      A                      A                      A
 Frequencies --   3491.8631              3503.0281              3586.2852
 Red. masses --      1.0538                 1.0739                 1.0869
 Frc consts  --      7.5705                 7.7646                 8.2361
 IR Inten    --      3.4730                 2.5857                 1.7801

 - Thermochemistry -
 -------------------
 Temperature   298.150 Kelvin.  Pressure   1.00000 Atm.
 Atom     1 has atomic number  6 and mass  12.00000

 Molecular mass:   156.16265 amu.
 Principal axes and moments of inertia in atomic units:
                           1         2         3
     Eigenvalues --  1413.434961741.759692248.93471
           X            0.99979  -0.02041  -0.00107
           Y            0.02041   0.99979   0.00134
           Z            0.00104  -0.00136   1.00000
 This molecule is an asymmetric top.
 Rotational symmetry number  1.
 Warning -- assumption of classical behavior for rotation
           may cause significant error
 Rotational temperatures (Kelvin)      0.06128     0.04973     0.03851
 Rotational constants (GHZ):           1.27685     1.03616     0.80249
 Zero-point vibrational energy     753985.6 (Joules/Mol)
                                  180.20688 (Kcal/Mol)
 Warning -- explicit consideration of  20 degrees of freedom as
           vibrations may cause significant error
 Vibrational temperatures:    174.20   186.18   197.32   293.52   345.27
          (Kelvin)            349.48   357.03   362.57   407.72   455.58
                              460.46   467.15   508.93   511.48   583.48
                              632.05   661.43   670.40   750.56   769.23
                              924.29  1001.18  1092.43  1144.63  1224.49
                             1258.43  1295.54  1305.99  1319.52  1325.97
                             1339.82  1381.01  1431.03  1464.34  1468.70
                             1489.94  1544.09  1573.75  1629.58  1657.64
                             1701.20  1738.72  1752.27  1791.19  1835.75
                             1870.46  1922.64  1927.22  1984.14  2002.36
                             2016.01  2024.12  2042.44  2055.00  2069.68
                             2112.45  2124.42  2133.80  2134.69  2143.59
                             2146.83  2153.65  2169.89  2172.59  2187.04
                             2195.35  2386.57  4341.11  4357.82  4363.29
                             4363.93  4374.86  4376.90  4386.26  4419.35
                             4445.72  4455.93  4457.30  4464.93  4466.68
                             4493.36  4493.94  4522.43  4548.99  5024.01
                             5040.08  5159.86

 Zero-point correction=                           0.287178 (Hartree/Particle)
 Thermal correction to Energy=                    0.299700
 Thermal correction to Enthalpy=                  0.300644
 Thermal correction to Gibbs Free Energy=         0.250894
 Sum of electronic and zero-point Energies=           -464.247742
 Sum of electronic and thermal Energies=              -464.235220
 Sum of electronic and thermal Enthalpies=            -464.234276
 Sum of electronic and thermal Free Energies=         -464.284027

                     E (Thermal)             CV                S
                      KCal/Mol        Cal/Mol-Kelvin    Cal/Mol-Kelvin
 Total                  188.065             50.827            104.709
 Electronic               0.000              0.000              0.000
 Translational            0.889              2.981             41.047
 Rotational               0.889              2.981             30.094
 Vibrational            186.287             44.866             33.568
 Vibration     1          0.609              1.932              3.083
 Vibration     2          0.612              1.924              2.955
 Vibration     3          0.614              1.916              2.843
 Vibration     4          0.640              1.834              2.097
 Vibration     5          0.657              1.779              1.803
 Vibration     6          0.659              1.774              1.782
 Vibration     7          0.662              1.766              1.744
 Vibration     8          0.664              1.759              1.717
 Vibration     9          0.682              1.704              1.513
 Vibration    10          0.704              1.642              1.327
 Vibration    11          0.706              1.635              1.310
 Vibration    12          0.709              1.626              1.286
 Vibration    13          0.730              1.568              1.150
 Vibration    14          0.731              1.564              1.142
 Vibration    15          0.771              1.458              0.943
 Vibration    16          0.799              1.384              0.829
 Vibration    17          0.818              1.339              0.767
 Vibration    18          0.823              1.326              0.749
 Vibration    19          0.877              1.202              0.606
 Vibration    20          0.890              1.173              0.577

 Optimization completed.
    -- Stationary point found.
 Normal termination of Gaussian 16 at Wed Jul 17 17:30:11 2024.
 Gaussian 16:  ES64L-G16RevA.03 25-Dec-2016

 ----------------------------------------------------------------------
 # TD(NStates=10, Root=1) B3LYP/6-31G** SCRF=(Solvent=water) volume pop
 =NPA density=current Geom=AllCheck Guess=Read
 ----------------------------------------------------------------------

 Structure from the checkpoint file:  "FTVFPPFZRRKJIH-UHFFFAOYSA-N_conf_0_2.chk"
 ----------------------------------
 FTVFPPFZRRKJIH-UHFFFAOYSA-N_conf_0
 ----------------------------------
 Charge =  0 Multiplicity = 1

                         Standard orientation:
 ---------------------------------------------------------------------
 Center     Atomic      Atomic             Coordinates (Angstroms)
 Number     Number       Type             X           Y           Z
 ---------------------------------------------------------------------
      1          6           0        1.696802   -0.207851    1.473856
      2          6           0        1.300099   -0.495357    0.002982
      3          6           0        2.385616   -1.426440   -0.575833
      4          6           0        1.252482    0.787094   -0.862079
      5          6           0       -0.016591    1.649126   -0.736172
      6          7           0        0.044389    2.562903    0.422183
      7          6           0       -1.268280    0.749962   -0.864203
      8          6           0       -1.283854   -0.531823    0.000781
      9          6           0       -1.690848   -0.246306    1.469279
     10          6           0       -2.340102   -1.496956   -0.575858
     11          7           0        0.018411   -1.213465   -0.160936
     12          1           0        1.011295    0.462853    1.992381
     13          1           0        1.724935   -1.144678    2.042225
     14          1           0        2.695068    0.241111    1.522906
     15          1           0        2.450973   -2.354358    0.004728
     16          1           0        2.152133   -1.689340   -1.611418
     17          1           0        3.369852   -0.946738   -0.548236
     18          1           0        1.320457    0.470694   -1.909769
     19          1           0        2.134077    1.403109   -0.654267
     20          1           0       -0.028176    2.314322   -1.609629
     21          1           0        0.029554    2.043696    1.294601
     22          1           0       -0.804140    3.127204    0.435368
     23          1           0       -2.171573    1.338324   -0.661262
     24          1           0       -1.328772    0.435469   -1.914250
     25          1           0       -2.716518    0.136866    1.514326
     26          1           0       -1.051606    0.483603    1.965872
     27          1           0       -1.654895   -1.171449    2.055983
     28          1           0       -2.093227   -1.762383   -1.607721
     29          1           0       -3.337155   -1.044112   -0.557950
     30          1           0       -2.383682   -2.421365    0.012663
     31          1           0        0.029852   -2.057592    0.408196
 ---------------------------------------------------------------------

 SCF Done:  E(RB3LYP) =  -464.534920247     A.U. after    1 cycles

 Excitation energies and oscillator strengths:

 Excited State   1:      Singlet-A      6.4348 eV  192.68 nm  f=0.0188  <S**2>=0.000
      44 -> 45         0.69774
 This state for optimization and/or second-order correction.
 Total Energy, E(TD-HF/TD-DFT) =  -464.298444111
 Copying the excited state density for this state as the 1-particle RhoCI density.

 Excited State   2:      Singlet-A      6.9911 eV  177.35 nm  f=0.0295  <S**2>=0.000
      43 -> 45         0.68349
      43 -> 46         0.14846

 Excited State   3:      Singlet-A      7.2597 eV  170.78 nm  f=0.0086  <S**2>=0.000
      44 -> 46         0.68429
      44 -> 47        -0.11238

 Excited State   4:      Singlet-A      7.6167 eV  162.78 nm  f=0.0033  <S**2>=0.000
      44 -> 46         0.12882
      44 -> 47         0.68802

 Excited State   5:      Singlet-A      7.8246 eV  158.45 nm  f=0.0045  <S**2>=0.000
      44 -> 48         0.69921

 Excited State   6:      Singlet-A      7.8897 eV  157.15 nm  f=0.0208  <S**2>=0.000
      43 -> 45        -0.10277
      43 -> 46         0.60660
      43 -> 47         0.33011

 Excited State   7:      Singlet-A      8.0608 eV  153.81 nm  f=0.0122  <S**2>=0.000
      44 -> 49         0.68353
      44 -> 50        -0.14352

 Excited State   8:      Singlet-A      8.1356 eV  152.40 nm  f=0.0258  <S**2>=0.000
      43 -> 45         0.13178
      43 -> 46        -0.30801
      43 -> 47         0.60759

 Excited State   9:      Singlet-A      8.4085 eV  147.45 nm  f=0.0456  <S**2>=0.000
      44 -> 49         0.14884
      44 -> 50         0.67372

 Excited State  10:      Singlet-A      8.6687 eV  143.03 nm  f=0.0045  <S**2>=0.000
      43 -> 48         0.63146
      43 -> 49         0.20074
      43 -> 50         0.19506

 The electronic state is 1-A.
 Alpha  occ. eigenvalues --  -14.30787 -14.30500 -10.21675 -10.21649 -10.20773
 Alpha  occ. eigenvalues --  -10.17233 -10.17153 -10.16800 -10.16758 -10.16685
 Alpha  occ. eigenvalues --  -10.16674  -0.90623  -0.87203  -0.79780  -0.75216
 Alpha  occ. eigenvalues --   -0.71813  -0.68162  -0.67518  -0.67019  -0.59602
 Alpha  occ. eigenvalues --   -0.56703  -0.51235  -0.49270  -0.47480  -0.45577
 Alpha  occ. eigenvalues --   -0.43702  -0.43541  -0.42228  -0.41079  -0.40232
 Alpha  occ. eigenvalues --   -0.39739  -0.38480  -0.37787  -0.37549  -0.35932
 Alpha  occ. eigenvalues --   -0.35221  -0.34944  -0.33658  -0.33175  -0.32332
 Alpha  occ. eigenvalues --   -0.30856  -0.29167  -0.23273  -0.20988
 Alpha virt. eigenvalues --    0.06231   0.09408   0.10339   0.11197   0.12474
 Alpha virt. eigenvalues --    0.13232   0.14660   0.15759   0.16094   0.16452
 Alpha virt. eigenvalues --    0.17092   0.17274   0.18412   0.18908   0.19244

 Mulliken charges:
               1
     1  C   -0.238001
     2  C    0.113938
     3  C   -0.299426
     4  C   -0.122969
     5  C    0.045532
     6  N   -0.587700
     7  C   -0.125711
     8  C    0.117101
     9  C   -0.237005
    10  C   -0.300945
    11  N   -0.223115
    12  H    0.069379
    13  H    0.057896
    14  H    0.097045
    15  H    0.089522
    16  H    0.097802
    17  H    0.112731
    18  H    0.061616
    19  H    0.068985
    20  H    0.065801
    21  H    0.164807
    22  H    0.172299
    23  H    0.051487
    24  H    0.059219
    25  H    0.092269
    26  H    0.062570
    27  H    0.058980
    28  H    0.098882
    29  H    0.113108
    30  H    0.091600
    31  H    0.172301
 Sum of Mulliken charges =  -0.00000

 Dipole moment (field-independent basis, Debye):
    X=             -0.9518    Y=             -3.8058    Z=             -0.5047  Tot=              3.9553
 Quadrupole moment (field-independent basis, Debye-Ang):
   XX=            -72.4055   YY=            -80.4483   ZZ=            -74.5794
   XY=             -3.4502   XZ=             -0.5219   YZ=             -0.2818

 Summary of Natural Population Analysis:

                                       Natural Population
                Natural  -----------------------------------------------
    Atom  No    Charge         Core      Valence    Rydberg      Total
 -----------------------------------------------------------------------
      C    1   -0.68740      1.99928     4.67669    0.01143     6.68740
      C    2    0.09604      1.99911     3.88910    0.01576     5.90396
      C    3   -0.70184      1.99936     4.68958    0.01290     6.70184
      C    4   -0.48511      1.99921     4.47071    0.01520     6.48511
      C    5   -0.06939      1.99921     4.04962    0.02055     6.06939
      N    6   -0.93389      1.99965     5.91837    0.01588     7.93389
      C    7   -0.49391      1.99920     4.48049    0.01422     6.49391
      C    8    0.09618      1.99910     3.88901    0.01571     5.90382
      C    9   -0.68688      1.99928     4.67606    0.01154     6.68688
      C   10   -0.70178      1.99936     4.68966    0.01276     6.70178
      N   11   -0.19026      1.99930     5.17824    0.01273     7.19026
      H   12    0.20331      0.00000     0.78088    0.01581     0.79669
      H   13    0.20433      0.00000     0.77596    0.01971     0.79567
      H   14    0.23716      0.00000     0.75012    0.01273     0.76284
      H   15    0.22655      0.00000     0.76269    0.01076     0.77345
      H   16    0.22933      0.00000     0.76214    0.00853     0.77067
      H   17    0.24448      0.00000     0.74842    0.00710     0.75552
      H   18    0.21502      0.00000     0.76972    0.01526     0.78498
      H   19    0.23469      0.00000     0.75167    0.01363     0.76531
      H   20    0.22620      0.00000     0.76222    0.01158     0.77380
      H   21    0.31527      0.00000     0.66306    0.02167     0.68473
      H   22    0.33698      0.00000     0.64354    0.01947     0.66302
      H   23    0.21677      0.00000     0.76421    0.01903     0.78323
      H   24    0.21463      0.00000     0.77061    0.01477     0.78537
      H   25    0.23346      0.00000     0.75268    0.01387     0.76654
      H   26    0.20067      0.00000     0.78191    0.01742     0.79933
      H   27    0.20524      0.00000     0.77550    0.01926     0.79476
      H   28    0.23000      0.00000     0.76180    0.00820     0.77000
      H   29    0.24451      0.00000     0.74849    0.00699     0.75549
      H   30    0.22783      0.00000     0.76211    0.01006     0.77217
      H   31    0.31181      0.00000     0.63129    0.05690     0.68819
 =======================================================================
   * Total *   -0.00000     21.99205    65.52653    0.48142    88.00000

 Normal termination of Gaussian 16 at Wed Jul 17 17:49:32 2024.
