 Gaussian 16, Revision A.03,

 -------------------------------------------------------
 # opt=CalcFc B3LYP/6-31G** SCRF=(Solvent=water) scf=xqc
 -------------------------------------------------------

 ----------------------------------
 OYTKINVCDFNREN-UHFFFAOYSA-N_conf_0
 ----------------------------------
 Symbolic Z-matrix:
 Charge =  0 Multiplicity = 1

 SCF Done:  E(RB3LYP) =  -359.020842978     A.U. after   12 cycles
 SCF Done:  E(RB3LYP) =  -359.024779751     A.U. after   11 cycles
 SCF Done:  E(RB3LYP) =  -359.025144054     A.U. after   10 cycles
 SCF Done:  E(RB3LYP) =  -359.025168395     A.U. after    9 cycles
 SCF Done:  E(RB3LYP) =  -359.025170574     A.U. after    8 cycles
 Optimization completed.
    -- Stationary point found.
 Normal termination of Gaussian 16 at Thu Jul 11 20:41:28 2024.

 ----------------------------------------------------------------------
 # freq B3LYP/6-31G** SCRF=(Solvent=water) volume NMR pop=NPA density=c
 urrent Geom=AllCheck Guess=Read
 ----------------------------------------------------------------------

 Structure from the checkpoint file:  "OYTKINVCDFNREN-UHFFFAOYSA-N_conf_0_1.chk"
 ----------------------------------
 OYTKINVCDFNREN-UHFFFAOYSA-N_conf_0
 ----------------------------------
 Charge =  0 Multiplicity = 1

 SCF Done:  E(RB3LYP) =  -359.025170574     A.U. after    1 cycles

      1  N    Isotropic =   202.2471   Anisotropy =    40.0150

      2  C    Isotropic =    54.2321   Anisotropy =   159.1356

      3  C    Isotropic =    65.0218   Anisotropy =   138.5165

      4  N    Isotropic =   215.1242   Anisotropy =    31.9692

      5  C    Isotropic =    60.1133   Anisotropy =   118.2892

      6  N    Isotropic =   -22.6988   Anisotropy =   471.9379

      7  C    Isotropic =    55.0395   Anisotropy =   142.0160

      8  C    Isotropic =    86.2585   Anisotropy =   125.4186

      9  H    Isotropic =    28.4595   Anisotropy =    10.1322

     10  H    Isotropic =    28.4342   Anisotropy =    12.9626

     11  H    Isotropic =    28.8330   Anisotropy =    13.3008

     12  H    Isotropic =    29.4345   Anisotropy =    11.5532

     13  H    Isotropic =    23.9153   Anisotropy =     6.7809

     14  H    Isotropic =    23.8224   Anisotropy =     5.0480

     15  H    Isotropic =    25.1828   Anisotropy =     6.0443

  Exact polarizability: 125.391  -1.539 113.179   0.456   0.937  34.796
 Approx polarizability: 160.835   3.645 139.958   0.724   2.735  43.854

                      1                      2                      3
                      A                      A                      A
 Frequencies --    185.3501               245.7597               290.0666
 Red. masses --      3.8150                 1.1580                 3.2391
 Frc consts  --      0.0772                 0.0412                 0.1606
 IR Inten    --      1.6723                31.7898                 2.0688

                      4                      5                      6
                      A                      A                      A
 Frequencies --    299.9212               437.4784               444.5633
 Red. masses --      3.2109                 3.5667                 2.2933
 Frc consts  --      0.1702                 0.4022                 0.2670
 IR Inten    --      1.3330                 1.2135                32.7823

                      7                      8                      9
                      A                      A                      A
 Frequencies --    468.5593               536.9814               589.2402
 Red. masses --      1.1149                 5.5419                 3.1483
 Frc consts  --      0.1442                 0.9415                 0.6440
 IR Inten    --     21.3211                10.3881               120.5418

                     10                     11                     12
                      A                      A                      A
 Frequencies --    618.0143               645.7802               737.8397
 Red. masses --      6.6107                 1.5564                 2.6310
 Frc consts  --      1.4876                 0.3824                 0.8439
 IR Inten    --      9.5218               395.9762               155.1129

                     13                     14                     15
                      A                      A                      A
 Frequencies --    782.5320               798.4817               834.4029
 Red. masses --      3.1474                 2.4321                 1.3612
 Frc consts  --      1.1355                 0.9136                 0.5584
 IR Inten    --    201.4356               108.7327                47.2552

                     16                     17                     18
                      A                      A                      A
 Frequencies --    888.5695               912.0506               953.5503
 Red. masses --      3.5949                 1.3961                 1.3626
 Frc consts  --      1.6723                 0.6842                 0.7300
 IR Inten    --     54.4800                16.5639                 0.9214

                     19                     20                     21
                      A                      A                      A
 Frequencies --   1066.6676              1104.4094              1131.2392
 Red. masses --      2.0639                 1.6629                 1.3235
 Frc consts  --      1.3836                 1.1950                 0.9979
 IR Inten    --      5.6916                 2.6332                 8.0141

                     22                     23                     24
                      A                      A                      A
 Frequencies --   1224.2344              1287.8915              1328.6210
 Red. masses --      1.4472                 3.4429                 4.3604
 Frc consts  --      1.2779                 3.3646                 4.5350
 IR Inten    --     33.0690                50.0384               100.6521

                     25                     26                     27
                      A                      A                      A
 Frequencies --   1364.4101              1371.8295              1471.2047
 Red. masses --      3.0448                 1.2859                 2.7196
 Frc consts  --      3.3396                 1.4258                 3.4682
 IR Inten    --     24.4156                 2.5968                32.1128

                     28                     29                     30
                      A                      A                      A
 Frequencies --   1550.6458              1617.4028              1626.8857
 Red. masses --      2.8519                 1.8032                 5.6934
 Frc consts  --      4.0402                 2.7793                 8.8785
 IR Inten    --    149.4918                23.5444                68.1815

                     31                     32                     33
                      A                      A                      A
 Frequencies --   1663.3959              1664.1719              3140.0756
 Red. masses --      1.9233                 1.1834                 1.0891
 Frc consts  --      3.1354                 1.9309                 6.3267
 IR Inten    --    243.5019                52.5500                66.3803

                     34                     35                     36
                      A                      A                      A
 Frequencies --   3159.6425              3193.3141              3513.9685
 Red. masses --      1.0887                 1.0940                 1.0511
 Frc consts  --      6.4037                 6.5729                 7.6469
 IR Inten    --     38.8362                25.0937                12.3824

                     37                     38                     39
                      A                      A                      A
 Frequencies --   3544.0143              3615.5204              3653.1461
 Red. masses --      1.0490                 1.0939                 1.0978
 Frc consts  --      7.7627                 8.4253                 8.6321
 IR Inten    --     34.9393                24.1056                39.2376

 - Thermochemistry -
 -------------------
 Temperature   298.150 Kelvin.  Pressure   1.00000 Atm.
 Atom     1 has atomic number  7 and mass  14.00307

 Molecular mass:   109.06400 amu.
 Principal axes and moments of inertia in atomic units:
                           1         2         3
     Eigenvalues --   534.10536 804.318011333.14316
           X            0.99901  -0.04441   0.00063
           Y            0.04442   0.99896  -0.00980
           Z           -0.00019   0.00982   0.99995
 This molecule is an asymmetric top.
 Rotational symmetry number  1.
 Warning -- assumption of classical behavior for rotation
           may cause significant error
 Rotational temperatures (Kelvin)      0.16217     0.10769     0.06497
 Rotational constants (GHZ):           3.37900     2.24382     1.35375
 Zero-point vibrational energy     322763.4 (Joules/Mol)
                                   77.14231 (Kcal/Mol)
 Warning -- explicit consideration of  10 degrees of freedom as
           vibrations may cause significant error
 Vibrational temperatures:    266.68   353.59   417.34   431.52   629.43
          (Kelvin)            639.63   674.15   772.60   847.79   889.18
                              929.13  1061.59  1125.89  1148.84  1200.52
                             1278.45  1312.24  1371.95  1534.70  1589.00
                             1627.60  1761.40  1852.99  1911.59  1963.08
                             1973.76  2116.74  2231.03  2327.08  2340.73
                             2393.26  2394.37  4517.87  4546.02  4594.47
                             5055.82  5099.05  5201.93  5256.06

 Zero-point correction=                           0.122934 (Hartree/Particle)
 Thermal correction to Energy=                    0.129770
 Thermal correction to Enthalpy=                  0.130714
 Thermal correction to Gibbs Free Energy=         0.092417
 Sum of electronic and zero-point Energies=           -358.902236
 Sum of electronic and thermal Energies=              -358.895401
 Sum of electronic and thermal Enthalpies=            -358.894457
 Sum of electronic and thermal Free Energies=         -358.932754

                     E (Thermal)             CV                S
                      KCal/Mol        Cal/Mol-Kelvin    Cal/Mol-Kelvin
 Total                   81.432             27.191             80.603
 Electronic               0.000              0.000              0.000
 Translational            0.889              2.981             39.977
 Rotational               0.889              2.981             27.840
 Vibrational             79.654             21.229             12.787
 Vibration     1          0.631              1.860              2.274
 Vibration     2          0.660              1.770              1.761
 Vibration     3          0.686              1.692              1.474
 Vibration     4          0.692              1.674              1.417
 Vibration     5          0.798              1.388              0.835
 Vibration     6          0.804              1.373              0.812
 Vibration     7          0.826              1.320              0.742
 Vibration     8          0.892              1.168              0.572
 Vibration     9          0.947              1.055              0.469
 Vibration    10          0.978              0.994              0.420

 Optimization completed.
    -- Stationary point found.
 Normal termination of Gaussian 16 at Thu Jul 11 20:54:43 2024.
 Gaussian 16:  EM64L-G16RevA.03 25-Dec-2016

 ----------------------------------------------------------------------
 # TD(NStates=10, Root=1) B3LYP/6-31G** SCRF=(Solvent=water) volume pop
 =NPA density=current Geom=AllCheck Guess=Read
 ----------------------------------------------------------------------

 Structure from the checkpoint file:  "OYTKINVCDFNREN-UHFFFAOYSA-N_conf_0_2.chk"
 ----------------------------------
 OYTKINVCDFNREN-UHFFFAOYSA-N_conf_0
 ----------------------------------
 Charge =  0 Multiplicity = 1

                         Standard orientation:
 ---------------------------------------------------------------------
 Center     Atomic      Atomic             Coordinates (Angstroms)
 Number     Number       Type             X           Y           Z
 ---------------------------------------------------------------------
      1          7           0        1.691066    1.422364    0.042918
      2          6           0        0.490283    0.728945    0.005169
      3          6           0        0.509324   -0.688585   -0.000727
      4          7           0        1.748523   -1.352399   -0.055624
      5          6           0       -0.714883   -1.357546   -0.016334
      6          7           0       -1.917585   -0.757161   -0.018728
      7          6           0       -1.917744    0.582474    0.013399
      8          6           0       -0.759949    1.357952    0.024979
      9          1           0        2.446525    0.971074   -0.461012
     10          1           0        1.623613    2.405852   -0.186503
     11          1           0        1.658257   -2.357935    0.041936
     12          1           0        2.406873   -1.011554    0.640004
     13          1           0       -0.715485   -2.447900   -0.030037
     14          1           0       -2.891400    1.069156    0.023010
     15          1           0       -0.824606    2.442241    0.033726
 ---------------------------------------------------------------------

 SCF Done:  E(RB3LYP) =  -359.025170574     A.U. after    1 cycles

 Excitation energies and oscillator strengths:

 Excited State   1:      Singlet-A      4.8353 eV  256.41 nm  f=0.1081  <S**2>=0.000
      28 -> 30         0.13055
      28 -> 31        -0.21370
      29 -> 30         0.62593
      29 -> 31         0.19740
 This state for optimization and/or second-order correction.
 Total Energy, E(TD-HF/TD-DFT) =  -358.847475299
 Copying the excited state density for this state as the 1-particle RhoCI density.

 Excited State   2:      Singlet-A      5.2621 eV  235.62 nm  f=0.1764  <S**2>=0.000
      27 -> 30        -0.10823
      27 -> 31         0.10768
      28 -> 30         0.13929
      29 -> 30        -0.22051
      29 -> 31         0.63602

 Excited State   3:      Singlet-A      5.5255 eV  224.39 nm  f=0.0117  <S**2>=0.000
      27 -> 30         0.68526
      28 -> 31         0.10083

 Excited State   4:      Singlet-A      5.7642 eV  215.09 nm  f=0.0190  <S**2>=0.000
      27 -> 31         0.66858
      28 -> 30        -0.15356
      28 -> 31         0.13442

 Excited State   5:      Singlet-A      6.0456 eV  205.08 nm  f=0.4326  <S**2>=0.000
      27 -> 31         0.12755
      28 -> 30         0.64870
      29 -> 31        -0.19476

 Excited State   6:      Singlet-A      6.2878 eV  197.18 nm  f=0.5447  <S**2>=0.000
      27 -> 31        -0.14471
      28 -> 31         0.63524
      29 -> 30         0.20034

 Excited State   7:      Singlet-A      6.6328 eV  186.93 nm  f=0.0100  <S**2>=0.000
      29 -> 32         0.70080

 Excited State   8:      Singlet-A      7.5492 eV  164.23 nm  f=0.0019  <S**2>=0.000
      28 -> 32         0.41317
      29 -> 33         0.55596

 Excited State   9:      Singlet-A      7.6917 eV  161.19 nm  f=0.2021  <S**2>=0.000
      25 -> 31        -0.11548
      26 -> 30         0.67506

 Excited State  10:      Singlet-A      7.7942 eV  159.07 nm  f=0.0064  <S**2>=0.000
      28 -> 32         0.55201
      29 -> 33        -0.41552

 The electronic state is 1-A.
 Alpha  occ. eigenvalues --  -14.34640 -14.34070 -14.31871 -10.23664 -10.22466
 Alpha  occ. eigenvalues --  -10.21070 -10.20994 -10.18617  -0.94775  -0.91362
 Alpha  occ. eigenvalues --   -0.89413  -0.76530  -0.73597  -0.63063  -0.61123
 Alpha  occ. eigenvalues --   -0.53521  -0.52529  -0.49452  -0.47708  -0.44410
 Alpha  occ. eigenvalues --   -0.43045  -0.42391  -0.40142  -0.36034  -0.33760
 Alpha  occ. eigenvalues --   -0.31775  -0.25372  -0.23913  -0.20509
 Alpha virt. eigenvalues --   -0.00173   0.00833   0.07807   0.11209   0.12130
 Alpha virt. eigenvalues --    0.14487   0.15393   0.16629   0.17964   0.19181
 Alpha virt. eigenvalues --    0.23066   0.26275   0.32119   0.33306   0.35365

 Mulliken charges:
               1
     1  N   -0.648199
     2  C    0.247584
     3  C    0.223663
     4  N   -0.612935
     5  C   -0.014070
     6  N   -0.510096
     7  C    0.073917
     8  C   -0.197083
     9  H    0.288096
    10  H    0.287278
    11  H    0.309058
    12  H    0.310651
    13  H    0.073702
    14  H    0.092767
    15  H    0.075669
 Sum of Mulliken charges =  -0.00000

 Dipole moment (field-independent basis, Debye):
    X=              6.9200    Y=              0.6081    Z=              0.0456  Tot=              6.9469
 Quadrupole moment (field-independent basis, Debye-Ang):
   XX=            -43.7511   YY=            -37.0472   ZZ=            -49.7189
   XY=             -6.0866   XZ=              0.2854   YZ=             -3.1507

 Summary of Natural Population Analysis:

                                       Natural Population
                Natural  -----------------------------------------------
    Atom  No    Charge         Core      Valence    Rydberg      Total
 -----------------------------------------------------------------------
      N    1   -0.79487      1.99950     5.78210    0.01327     7.79487
      C    2    0.09151      1.99895     3.88909    0.02045     5.90849
      C    3    0.10723      1.99890     3.87632    0.01755     5.89277
      N    4   -0.72450      1.99949     5.71364    0.01137     7.72450
      C    5   -0.13091      1.99915     4.10246    0.02929     6.13091
      N    6   -0.52336      1.99949     5.49932    0.02456     7.52336
      C    7    0.03188      1.99923     3.94425    0.02463     5.96812
      C    8   -0.41863      1.99905     4.40097    0.01861     6.41863
      H    9    0.41599      0.00000     0.58057    0.00344     0.58401
      H   10    0.42026      0.00000     0.57631    0.00342     0.57974
      H   11    0.42959      0.00000     0.56785    0.00255     0.57041
      H   12    0.42758      0.00000     0.56912    0.00330     0.57242
      H   13    0.21029      0.00000     0.78773    0.00197     0.78971
      H   14    0.22035      0.00000     0.77807    0.00159     0.77965
      H   15    0.23759      0.00000     0.76070    0.00171     0.76241
 =======================================================================
   * Total *   -0.00000     15.99376    41.82850    0.17774    58.00000

 Normal termination of Gaussian 16 at Thu Jul 11 21:10:08 2024.
