 Gaussian 16, Revision A.03,

 -------------------------------------------------------
 # opt=CalcFc B3LYP/6-31G** SCRF=(Solvent=water) scf=xqc
 -------------------------------------------------------

 ----------------------------------
 OYTKINVCDFNREN-UHFFFAOYSA-N_conf_1
 ----------------------------------
 Symbolic Z-matrix:
 Charge =  0 Multiplicity = 1

 SCF Done:  E(RB3LYP) =  -359.020843203     A.U. after   12 cycles
 SCF Done:  E(RB3LYP) =  -359.024779804     A.U. after   11 cycles
 SCF Done:  E(RB3LYP) =  -359.025144055     A.U. after   10 cycles
 SCF Done:  E(RB3LYP) =  -359.025168395     A.U. after    9 cycles
 SCF Done:  E(RB3LYP) =  -359.025170574     A.U. after    8 cycles
 SCF Done:  E(RB3LYP) =  -359.025170638     A.U. after    7 cycles
 Optimization completed.
    -- Stationary point found.
 Normal termination of Gaussian 16 at Thu Jul 11 20:44:44 2024.

 ----------------------------------------------------------------------
 # freq B3LYP/6-31G** SCRF=(Solvent=water) volume NMR pop=NPA density=c
 urrent Geom=AllCheck Guess=Read
 ----------------------------------------------------------------------

 Structure from the checkpoint file:  "OYTKINVCDFNREN-UHFFFAOYSA-N_conf_1_1.chk"
 ----------------------------------
 OYTKINVCDFNREN-UHFFFAOYSA-N_conf_1
 ----------------------------------
 Charge =  0 Multiplicity = 1

 SCF Done:  E(RB3LYP) =  -359.025170638     A.U. after    1 cycles

      1  N    Isotropic =   202.2340   Anisotropy =    40.0635

      2  C    Isotropic =    54.2205   Anisotropy =   159.1473

      3  C    Isotropic =    65.0437   Anisotropy =   138.4807

      4  N    Isotropic =   215.1482   Anisotropy =    31.9590

      5  C    Isotropic =    60.1064   Anisotropy =   118.2931

      6  N    Isotropic =   -22.6607   Anisotropy =   471.8695

      7  C    Isotropic =    55.0291   Anisotropy =   142.0327

      8  C    Isotropic =    86.2719   Anisotropy =   125.4105

      9  H    Isotropic =    28.4330   Anisotropy =    12.9641

     10  H    Isotropic =    28.4554   Anisotropy =    10.1314

     11  H    Isotropic =    28.8339   Anisotropy =    13.3004

     12  H    Isotropic =    29.4375   Anisotropy =    11.5601

     13  H    Isotropic =    23.9157   Anisotropy =     6.7802

     14  H    Isotropic =    23.8223   Anisotropy =     5.0480

     15  H    Isotropic =    25.1833   Anisotropy =     6.0447

  Exact polarizability: 125.387   1.528 113.174  -0.459   0.941  34.796
 Approx polarizability: 160.830  -3.665 139.949  -0.729   2.738  43.853

                      1                      2                      3
                      A                      A                      A
 Frequencies --    185.3193               245.6651               290.0188
 Red. masses --      3.8137                 1.1569                 3.2417
 Frc consts  --      0.0772                 0.0411                 0.1606
 IR Inten    --      1.6668                31.7280                 2.0825

                      4                      5                      6
                      A                      A                      A
 Frequencies --    299.8882               437.4584               444.4686
 Red. masses --      3.2172                 3.5621                 2.2922
 Frc consts  --      0.1705                 0.4016                 0.2668
 IR Inten    --      1.3635                 1.2580                32.8819

                      7                      8                      9
                      A                      A                      A
 Frequencies --    468.5880               536.9733               589.1100
 Red. masses --      1.1154                 5.5363                 3.1230
 Frc consts  --      0.1443                 0.9405                 0.6386
 IR Inten    --     21.2016                10.5025               123.2921

                     10                     11                     12
                      A                      A                      A
 Frequencies --    618.0060               644.7558               737.9413
 Red. masses --      6.5968                 1.5627                 2.6426
 Frc consts  --      1.4845                 0.3828                 0.8479
 IR Inten    --      9.7819               393.5716               153.6240

                     13                     14                     15
                      A                      A                      A
 Frequencies --    782.6293               798.4924               834.3878
 Red. masses --      3.1488                 2.4247                 1.3610
 Frc consts  --      1.1363                 0.9109                 0.5583
 IR Inten    --    200.6294               109.4698                47.1499

                     16                     17                     18
                      A                      A                      A
 Frequencies --    888.5527               912.0786               953.5814
 Red. masses --      3.5936                 1.3963                 1.3626
 Frc consts  --      1.6717                 0.6844                 0.7300
 IR Inten    --     54.8235                16.6330                 0.9188

                     19                     20                     21
                      A                      A                      A
 Frequencies --   1066.5873              1104.4191              1131.2470
 Red. masses --      2.0630                 1.6625                 1.3238
 Frc consts  --      1.3827                 1.1948                 0.9981
 IR Inten    --      5.6865                 2.6607                 7.9761

                     22                     23                     24
                      A                      A                      A
 Frequencies --   1224.2296              1287.8239              1328.6298
 Red. masses --      1.4473                 3.4439                 4.3600
 Frc consts  --      1.2780                 3.3652                 4.5346
 IR Inten    --     33.1250                50.0203               100.7569

                     25                     26                     27
                      A                      A                      A
 Frequencies --   1364.4081              1371.8243              1471.2463
 Red. masses --      3.0455                 1.2860                 2.7200
 Frc consts  --      3.3404                 1.4258                 3.4689
 IR Inten    --     24.3820                 2.6208                32.0326

                     28                     29                     30
                      A                      A                      A
 Frequencies --   1550.6584              1617.4448              1626.8802
 Red. masses --      2.8525                 1.7993                 5.7091
 Frc consts  --      4.0411                 2.7734                 8.9028
 IR Inten    --    149.6635                23.6032                67.8684

                     31                     32                     33
                      A                      A                      A
 Frequencies --   1663.3625              1664.1452              3140.0907
 Red. masses --      1.8305                 1.2228                 1.0891
 Frc consts  --      2.9840                 1.9951                 6.3268
 IR Inten    --    241.3094                55.2400                66.3944

                     34                     35                     36
                      A                      A                      A
 Frequencies --   3159.6329              3193.3416              3513.9376
 Red. masses --      1.0887                 1.0940                 1.0511
 Frc consts  --      6.4036                 6.5730                 7.6467
 IR Inten    --     38.8550                25.0843                12.3444

                     37                     38                     39
                      A                      A                      A
 Frequencies --   3544.2078              3615.4073              3653.4213
 Red. masses --      1.0490                 1.0939                 1.0978
 Frc consts  --      7.7634                 8.4247                 8.6336
 IR Inten    --     35.0913                24.0502                39.3658

 - Thermochemistry -
 -------------------
 Temperature   298.150 Kelvin.  Pressure   1.00000 Atm.
 Atom     1 has atomic number  7 and mass  14.00307

 Molecular mass:   109.06400 amu.
 Principal axes and moments of inertia in atomic units:
                           1         2         3
     Eigenvalues --   534.10414 804.309391333.13101
           X            0.99901   0.04443  -0.00064
           Y           -0.04443   0.99896  -0.00979
           Z            0.00020   0.00981   0.99995
 This molecule is an asymmetric top.
 Rotational symmetry number  1.
 Warning -- assumption of classical behavior for rotation
           may cause significant error
 Rotational temperatures (Kelvin)      0.16217     0.10769     0.06497
 Rotational constants (GHZ):           3.37901     2.24384     1.35376
 Zero-point vibrational energy     322757.6 (Joules/Mol)
                                   77.14092 (Kcal/Mol)
 Warning -- explicit consideration of  10 degrees of freedom as
           vibrations may cause significant error
 Vibrational temperatures:    266.63   353.46   417.27   431.47   629.41
          (Kelvin)            639.49   674.19   772.58   847.60   889.17
                              927.66  1061.73  1126.03  1148.85  1200.50
                             1278.43  1312.28  1371.99  1534.58  1589.01
                             1627.61  1761.39  1852.89  1911.60  1963.08
                             1973.75  2116.80  2231.05  2327.14  2340.72
                             2393.21  2394.33  4517.89  4546.01  4594.51
                             5055.77  5099.32  5201.76  5256.46

 Zero-point correction=                           0.122932 (Hartree/Particle)
 Thermal correction to Energy=                    0.129768
 Thermal correction to Enthalpy=                  0.130712
 Thermal correction to Gibbs Free Energy=         0.092414
 Sum of electronic and zero-point Energies=           -358.902239
 Sum of electronic and thermal Energies=              -358.895402
 Sum of electronic and thermal Enthalpies=            -358.894458
 Sum of electronic and thermal Free Energies=         -358.932757

                     E (Thermal)             CV                S
                      KCal/Mol        Cal/Mol-Kelvin    Cal/Mol-Kelvin
 Total                   81.431             27.193             80.606
 Electronic               0.000              0.000              0.000
 Translational            0.889              2.981             39.977
 Rotational               0.889              2.981             27.840
 Vibrational             79.653             21.232             12.790
 Vibration     1          0.631              1.860              2.274
 Vibration     2          0.660              1.770              1.761
 Vibration     3          0.686              1.692              1.474
 Vibration     4          0.692              1.674              1.418
 Vibration     5          0.798              1.389              0.835
 Vibration     6          0.804              1.373              0.813
 Vibration     7          0.826              1.320              0.742
 Vibration     8          0.892              1.168              0.572
 Vibration     9          0.946              1.055              0.469
 Vibration    10          0.978              0.994              0.420

 Optimization completed.
    -- Stationary point found.
 Normal termination of Gaussian 16 at Thu Jul 11 20:57:11 2024.
 Gaussian 16:  EM64L-G16RevA.03 25-Dec-2016

 ----------------------------------------------------------------------
 # TD(NStates=10, Root=1) B3LYP/6-31G** SCRF=(Solvent=water) volume pop
 =NPA density=current Geom=AllCheck Guess=Read
 ----------------------------------------------------------------------

 Structure from the checkpoint file:  "OYTKINVCDFNREN-UHFFFAOYSA-N_conf_1_2.chk"
 ----------------------------------
 OYTKINVCDFNREN-UHFFFAOYSA-N_conf_1
 ----------------------------------
 Charge =  0 Multiplicity = 1

                         Standard orientation:
 ---------------------------------------------------------------------
 Center     Atomic      Atomic             Coordinates (Angstroms)
 Number     Number       Type             X           Y           Z
 ---------------------------------------------------------------------
      1          7           0       -1.690952    1.422456    0.042659
      2          6           0       -0.490254    0.728931    0.005069
      3          6           0       -0.509303   -0.688598   -0.000641
      4          7           0       -1.748614   -1.352294   -0.055518
      5          6           0        0.714852   -1.357529   -0.016425
      6          7           0        1.917582   -0.757191   -0.018810
      7          6           0        1.917728    0.582445    0.013459
      8          6           0        0.759953    1.357935    0.025158
      9          1           0       -1.623789    2.405920   -0.186886
     10          1           0       -2.446940    0.970787   -0.460096
     11          1           0       -1.658334   -2.357930    0.041107
     12          1           0       -2.406339   -1.012139    0.641035
     13          1           0        0.715447   -2.447880   -0.030188
     14          1           0        2.891389    1.069119    0.023087
     15          1           0        0.824597    2.442220    0.033915
 ---------------------------------------------------------------------

 SCF Done:  E(RB3LYP) =  -359.025170638     A.U. after    1 cycles

 Excitation energies and oscillator strengths:

 Excited State   1:      Singlet-A      4.8357 eV  256.39 nm  f=0.1080  <S**2>=0.000
      28 -> 30         0.13081
      28 -> 31        -0.21373
      29 -> 30         0.62569
      29 -> 31         0.19795
 This state for optimization and/or second-order correction.
 Total Energy, E(TD-HF/TD-DFT) =  -358.847460487
 Copying the excited state density for this state as the 1-particle RhoCI density.

 Excited State   2:      Singlet-A      5.2619 eV  235.63 nm  f=0.1763  <S**2>=0.000
      27 -> 30         0.10830
      27 -> 31        -0.10777
      28 -> 30         0.13893
      29 -> 30        -0.22099
      29 -> 31         0.63589

 Excited State   3:      Singlet-A      5.5260 eV  224.37 nm  f=0.0117  <S**2>=0.000
      27 -> 30         0.68512
      28 -> 31        -0.10123

 Excited State   4:      Singlet-A      5.7641 eV  215.10 nm  f=0.0191  <S**2>=0.000
      27 -> 31         0.66837
      28 -> 30         0.15366
      28 -> 31        -0.13511

 Excited State   5:      Singlet-A      6.0455 eV  205.09 nm  f=0.4321  <S**2>=0.000
      27 -> 31        -0.12757
      28 -> 30         0.64862
      29 -> 31        -0.19467

 Excited State   6:      Singlet-A      6.2878 eV  197.18 nm  f=0.5452  <S**2>=0.000
      27 -> 31         0.14550
      28 -> 31         0.63501
      29 -> 30         0.20043

 Excited State   7:      Singlet-A      6.6331 eV  186.92 nm  f=0.0100  <S**2>=0.000
      29 -> 32         0.70080

 Excited State   8:      Singlet-A      7.5491 eV  164.24 nm  f=0.0019  <S**2>=0.000
      28 -> 32         0.41328
      29 -> 33         0.55591

 Excited State   9:      Singlet-A      7.6914 eV  161.20 nm  f=0.2021  <S**2>=0.000
      25 -> 31        -0.11545
      26 -> 30         0.67513

 Excited State  10:      Singlet-A      7.7941 eV  159.07 nm  f=0.0063  <S**2>=0.000
      28 -> 32         0.55199
      29 -> 33        -0.41562

 The electronic state is 1-A.
 Alpha  occ. eigenvalues --  -14.34640 -14.34069 -14.31869 -10.23665 -10.22464
 Alpha  occ. eigenvalues --  -10.21069 -10.20995 -10.18615  -0.94774  -0.91361
 Alpha  occ. eigenvalues --   -0.89412  -0.76530  -0.73597  -0.63063  -0.61124
 Alpha  occ. eigenvalues --   -0.53521  -0.52530  -0.49451  -0.47709  -0.44411
 Alpha  occ. eigenvalues --   -0.43045  -0.42391  -0.40141  -0.36033  -0.33760
 Alpha  occ. eigenvalues --   -0.31772  -0.25372  -0.23912  -0.20509
 Alpha virt. eigenvalues --   -0.00171   0.00833   0.07808   0.11209   0.12130
 Alpha virt. eigenvalues --    0.14486   0.15395   0.16628   0.17966   0.19181
 Alpha virt. eigenvalues --    0.23067   0.26275   0.32121   0.33306   0.35366

 Mulliken charges:
               1
     1  N   -0.648114
     2  C    0.247774
     3  C    0.223543
     4  N   -0.613035
     5  C   -0.014123
     6  N   -0.509998
     7  C    0.073863
     8  C   -0.197109
     9  H    0.287325
    10  H    0.288145
    11  H    0.309015
    12  H    0.310627
    13  H    0.073681
    14  H    0.092745
    15  H    0.075664
 Sum of Mulliken charges =   0.00000

 Dipole moment (field-independent basis, Debye):
    X=             -6.9208    Y=              0.6098    Z=              0.0473  Tot=              6.9478
 Quadrupole moment (field-independent basis, Debye-Ang):
   XX=            -43.7490   YY=            -37.0459   ZZ=            -49.7178
   XY=              6.0796   XZ=             -0.2903   YZ=             -3.1484

 Summary of Natural Population Analysis:

                                       Natural Population
                Natural  -----------------------------------------------
    Atom  No    Charge         Core      Valence    Rydberg      Total
 -----------------------------------------------------------------------
      N    1   -0.79465      1.99950     5.78189    0.01326     7.79465
      C    2    0.09164      1.99895     3.88896    0.02045     5.90836
      C    3    0.10713      1.99890     3.87642    0.01755     5.89287
      N    4   -0.72473      1.99949     5.71386    0.01138     7.72473
      C    5   -0.13101      1.99915     4.10257    0.02929     6.13101
      N    6   -0.52315      1.99949     5.49910    0.02456     7.52315
      C    7    0.03175      1.99923     3.94438    0.02464     5.96825
      C    8   -0.41868      1.99905     4.40101    0.01862     6.41868
      H    9    0.42030      0.00000     0.57627    0.00343     0.57970
      H   10    0.41605      0.00000     0.58051    0.00344     0.58395
      H   11    0.42957      0.00000     0.56788    0.00255     0.57043
      H   12    0.42755      0.00000     0.56915    0.00330     0.57245
      H   13    0.21029      0.00000     0.78774    0.00197     0.78971
      H   14    0.22034      0.00000     0.77807    0.00159     0.77966
      H   15    0.23759      0.00000     0.76070    0.00171     0.76241
 =======================================================================
   * Total *   -0.00000     15.99376    41.82850    0.17774    58.00000

 Normal termination of Gaussian 16 at Thu Jul 11 21:11:44 2024.
