 Gaussian 16, Revision A.03,

 -------------------------------------------------------
 # opt=CalcFc B3LYP/6-31G** SCRF=(Solvent=water) scf=xqc
 -------------------------------------------------------

 ----------------------------------
 CAPCBAYULRXQAN-VIFPVBQESA-N_conf_1
 ----------------------------------
 Symbolic Z-matrix:
 Charge =  0 Multiplicity = 1

 SCF Done:  E(RB3LYP) =  -465.733196199     A.U. after   11 cycles
 SCF Done:  E(RB3LYP) =  -465.735737162     A.U. after    9 cycles
 SCF Done:  E(RB3LYP) =  -465.735790669     A.U. after    9 cycles
 SCF Done:  E(RB3LYP) =  -465.735794071     A.U. after    7 cycles
 SCF Done:  E(RB3LYP) =  -465.735794128     A.U. after    6 cycles
 Optimization completed.
    -- Stationary point found.
 Normal termination of Gaussian 16 at Thu Jul 11 17:59:21 2024.

 ----------------------------------------------------------------------
 # freq B3LYP/6-31G** SCRF=(Solvent=water) volume NMR pop=NPA density=c
 urrent Geom=AllCheck Guess=Read
 ----------------------------------------------------------------------

 Structure from the checkpoint file:  "CAPCBAYULRXQAN-VIFPVBQESA-N_conf_1_1.chk"
 ----------------------------------
 CAPCBAYULRXQAN-VIFPVBQESA-N_conf_1
 ----------------------------------
 Charge =  0 Multiplicity = 1

 SCF Done:  E(RB3LYP) =  -465.735794128     A.U. after    1 cycles

      1  C    Isotropic =   171.6955   Anisotropy =    29.8621

      2  C    Isotropic =   145.8408   Anisotropy =    29.4243

      3  N    Isotropic =   214.8550   Anisotropy =    49.7080

      4  C    Isotropic =   152.2285   Anisotropy =    38.2425

      5  C    Isotropic =   166.8816   Anisotropy =    21.4103

      6  C    Isotropic =   142.3203   Anisotropy =    53.4706

      7  N    Isotropic =   216.1565   Anisotropy =    57.7864

      8  C    Isotropic =   143.2423   Anisotropy =    51.9216

      9  C    Isotropic =   177.5925   Anisotropy =    21.0023

     10  C    Isotropic =   152.8987   Anisotropy =    39.2509

     11  C    Isotropic =   188.8400   Anisotropy =     7.0738

     12  H    Isotropic =    31.2694   Anisotropy =     8.1875

     13  H    Isotropic =    30.3973   Anisotropy =     7.1185

     14  H    Isotropic =    30.6240   Anisotropy =     9.7600

     15  H    Isotropic =    28.7570   Anisotropy =     6.4318

     16  H    Isotropic =    31.2004   Anisotropy =    12.8555

     17  H    Isotropic =    31.6310   Anisotropy =    11.2169

     18  H    Isotropic =    30.8638   Anisotropy =     6.0491

     19  H    Isotropic =    29.8879   Anisotropy =     4.8031

     20  H    Isotropic =    30.4733   Anisotropy =     7.5076

     21  H    Isotropic =    29.9410   Anisotropy =     7.0323

     22  H    Isotropic =    29.3903   Anisotropy =     5.3813

     23  H    Isotropic =    28.9528   Anisotropy =     6.3641

     24  H    Isotropic =    28.8199   Anisotropy =     6.7854

     25  H    Isotropic =    29.4902   Anisotropy =     6.5594

     26  H    Isotropic =    30.3672   Anisotropy =     7.5232

     27  H    Isotropic =    30.8188   Anisotropy =     8.1736

     28  H    Isotropic =    30.7548   Anisotropy =    10.7145

     29  H    Isotropic =    28.8480   Anisotropy =     6.7391

     30  H    Isotropic =    28.8811   Anisotropy =     5.7839

     31  H    Isotropic =    30.6987   Anisotropy =     8.6216

     32  H    Isotropic =    31.5286   Anisotropy =    10.9871

     33  H    Isotropic =    30.6893   Anisotropy =     8.1476

  Exact polarizability: 150.419  -2.729 141.529   1.214   0.073 137.935
 Approx polarizability: 152.994  -2.638 150.182   0.556   0.473 150.318

                      1                      2                      3
                      A                      A                      A
 Frequencies --     36.1926                38.7457                51.4010
 Red. masses --      3.2864                 3.0569                 2.7602
 Frc consts  --      0.0025                 0.0027                 0.0043
 IR Inten    --      0.2754                 0.2776                 0.1444

                      4                      5                      6
                      A                      A                      A
 Frequencies --     63.9404               105.8286               155.9511
 Red. masses --      2.4887                 2.2667                 2.4283
 Frc consts  --      0.0060                 0.0150                 0.0348
 IR Inten    --      0.0527                 0.2428                 1.2026

                      7                      8                      9
                      A                      A                      A
 Frequencies --    168.5902               226.7412               232.9201
 Red. masses --      1.6118                 1.1877                 1.2492
 Frc consts  --      0.0270                 0.0360                 0.0399
 IR Inten    --      0.6221                 1.3833                 0.6844

                     10                     11                     12
                      A                      A                      A
 Frequencies --    254.2587               269.6968               281.2612
 Red. masses --      1.5189                 1.1670                 2.2729
 Frc consts  --      0.0579                 0.0500                 0.1059
 IR Inten    --     29.9902                36.9977                 1.4137

                     13                     14                     15
                      A                      A                      A
 Frequencies --    296.8757               334.4730               383.4969
 Red. masses --      1.6511                 2.1052                 2.2289
 Frc consts  --      0.0857                 0.1388                 0.1931
 IR Inten    --      2.9580                 2.8528                 1.4228

                     16                     17                     18
                      A                      A                      A
 Frequencies --    404.5614               417.6068               460.4857
 Red. masses --      2.2221                 2.1824                 2.4304
 Frc consts  --      0.2143                 0.2242                 0.3036
 IR Inten    --     12.6293                 1.9987                 3.2038

                     19                     20                     21
                      A                      A                      A
 Frequencies --    476.9761               497.2127               564.1627
 Red. masses --      2.2080                 2.4729                 2.5593
 Frc consts  --      0.2960                 0.3602                 0.4799
 IR Inten    --      0.1638                17.1013                 1.0951

                     22                     23                     24
                      A                      A                      A
 Frequencies --    721.0227               771.3048               782.7163
 Red. masses --      1.8635                 2.2326                 1.1448
 Frc consts  --      0.5708                 0.7825                 0.4132
 IR Inten    --     13.6413                15.6535                 9.4309

                     25                     26                     27
                      A                      A                      A
 Frequencies --    815.8649               849.0879               878.9923
 Red. masses --      1.2141                 1.7787                 2.4169
 Frc consts  --      0.4761                 0.7556                 1.1002
 IR Inten    --      4.1326                22.1150                 1.8479

                     28                     29                     30
                      A                      A                      A
 Frequencies --    911.3112               929.4174               934.6937
 Red. masses --      1.8576                 1.7759                 1.8046
 Frc consts  --      0.9090                 0.9038                 0.9289
 IR Inten    --     11.8873                16.3882               132.1518

                     31                     32                     33
                      A                      A                      A
 Frequencies --    955.9799               991.1224              1025.0845
 Red. masses --      1.4254                 2.0099                 1.5635
 Frc consts  --      0.7675                 1.1632                 0.9680
 IR Inten    --     45.2866                20.6754                 8.3759

                     34                     35                     36
                      A                      A                      A
 Frequencies --   1035.8297              1065.2718              1069.9389
 Red. masses --      1.5510                 1.9471                 2.1625
 Frc consts  --      0.9805                 1.3018                 1.4586
 IR Inten    --     38.5341                 4.3092                31.6797

                     37                     38                     39
                      A                      A                      A
 Frequencies --   1085.9330              1103.6873              1136.0669
 Red. masses --      1.9968                 2.0493                 1.8669
 Frc consts  --      1.3874                 1.4708                 1.4197
 IR Inten    --      6.4069                13.3541                23.6613

                     40                     41                     42
                      A                      A                      A
 Frequencies --   1137.8220              1159.2327              1199.3212
 Red. masses --      1.8220                 1.9869                 1.8797
 Frc consts  --      1.3898                 1.5732                 1.5930
 IR Inten    --     36.4541                23.2448                19.3498

                     43                     44                     45
                      A                      A                      A
 Frequencies --   1214.6399              1232.7928              1270.0448
 Red. masses --      1.4889                 1.9290                 1.6036
 Frc consts  --      1.2942                 1.7273                 1.5240
 IR Inten    --     41.0285                13.4883                13.6769

                     46                     47                     48
                      A                      A                      A
 Frequencies --   1283.2654              1314.1831              1336.9210
 Red. masses --      1.3639                 1.2345                 1.2388
 Frc consts  --      1.3233                 1.2562                 1.3045
 IR Inten    --     12.8969                 8.8031                11.1663

                     49                     50                     51
                      A                      A                      A
 Frequencies --   1354.8736              1360.7054              1385.2177
 Red. masses --      1.1752                 1.1900                 1.4486
 Frc consts  --      1.2711                 1.2981                 1.6377
 IR Inten    --     11.8314                12.6591                15.7850

                     52                     53                     54
                      A                      A                      A
 Frequencies --   1385.9612              1396.0428              1403.6468
 Red. masses --      1.2809                 1.3375                 1.3327
 Frc consts  --      1.4497                 1.5359                 1.5471
 IR Inten    --      5.1254                31.5328                12.4356

                     55                     56                     57
                      A                      A                      A
 Frequencies --   1407.0513              1411.3029              1414.7016
 Red. masses --      1.2412                 1.2536                 1.2983
 Frc consts  --      1.4478                 1.4711                 1.5309
 IR Inten    --      3.2651                22.4367                26.5401

                     58                     59                     60
                      A                      A                      A
 Frequencies --   1435.3537              1441.8766              1479.8183
 Red. masses --      1.4034                 1.4083                 1.0808
 Frc consts  --      1.7035                 1.7251                 1.3945
 IR Inten    --     12.5828                 2.0736                 1.7702

                     61                     62                     63
                      A                      A                      A
 Frequencies --   1486.5498              1491.2682              1495.2802
 Red. masses --      1.0712                 1.0562                 1.0523
 Frc consts  --      1.3947                 1.3839                 1.3863
 IR Inten    --      2.8473                 6.4021                 9.4317

                     64                     65                     66
                      A                      A                      A
 Frequencies --   1500.1955              1503.5340              1505.2879
 Red. masses --      1.0473                 1.0623                 1.0447
 Frc consts  --      1.3887                 1.4148                 1.3947
 IR Inten    --      5.2449                 2.9717                 1.9951

                     67                     68                     69
                      A                      A                      A
 Frequencies --   1507.3924              1518.6371              1520.9783
 Red. masses --      1.0579                 1.0744                 1.0752
 Frc consts  --      1.4162                 1.4600                 1.4654
 IR Inten    --      4.8617                 1.6381                10.3927

                     70                     71                     72
                      A                      A                      A
 Frequencies --   1531.9179              1655.1075              2928.9473
 Red. masses --      1.0931                 1.0893                 1.0732
 Frc consts  --      1.5115                 1.7582                 5.4242
 IR Inten    --      1.0291                35.5343                22.2659

                     73                     74                     75
                      A                      A                      A
 Frequencies --   2934.4325              3012.6525              3031.7527
 Red. masses --      1.0735                 1.0653                 1.0611
 Frc consts  --      5.4462                 5.6968                 5.7463
 IR Inten    --    255.7736                41.6930                16.9141

                     76                     77                     78
                      A                      A                      A
 Frequencies --   3037.7316              3041.0991              3045.6266
 Red. masses --      1.0613                 1.0622                 1.0366
 Frc consts  --      5.7699                 5.7881                 5.6653
 IR Inten    --     63.9863                44.7463                26.9726

                     79                     80                     81
                      A                      A                      A
 Frequencies --   3045.7537              3051.3070              3054.8528
 Red. masses --      1.0363                 1.0874                 1.0840
 Frc consts  --      5.6641                 5.9651                 5.9603
 IR Inten    --     43.1292                 5.5127                56.5993

                     82                     83                     84
                      A                      A                      A
 Frequencies --   3061.3785              3066.2598              3077.2515
 Red. masses --      1.0655                 1.0954                 1.0998
 Frc consts  --      5.8837                 6.0677                 6.1359
 IR Inten    --     29.4918                74.9406               150.0158

                     85                     86                     87
                      A                      A                      A
 Frequencies --   3090.6219              3104.7340              3112.4105
 Red. masses --      1.1028                 1.0966                 1.1013
 Frc consts  --      6.2063                 6.2281                 6.2855
 IR Inten    --     18.9431                66.2411                56.5501

                     88                     89                     90
                      A                      A                      A
 Frequencies --   3116.7975              3119.1645              3121.8493
 Red. masses --      1.1022                 1.1028                 1.1030
 Frc consts  --      6.3086                 6.3214                 6.3333
 IR Inten    --     57.1281                63.0475                80.3367

                     91                     92                     93
                      A                      A                      A
 Frequencies --   3126.3297              3454.5835              3534.1948
 Red. masses --      1.1025                 1.0507                 1.0905
 Frc consts  --      6.3489                 7.3878                 8.0252
 IR Inten    --     47.2803                 2.9712                 0.9676

 - Thermochemistry -
 -------------------
 Temperature   298.150 Kelvin.  Pressure   1.00000 Atm.
 Atom     1 has atomic number  6 and mass  12.00000

 Molecular mass:   158.17830 amu.
 Principal axes and moments of inertia in atomic units:
                           1         2         3
     Eigenvalues --  1141.921683443.297123880.15932
           X            0.99996  -0.00807   0.00468
           Y            0.00806   0.99996   0.00370
           Z           -0.00471  -0.00366   0.99998
 This molecule is an asymmetric top.
 Rotational symmetry number  1.
 Warning -- assumption of classical behavior for rotation
           may cause significant error
 Rotational temperatures (Kelvin)      0.07585     0.02515     0.02232
 Rotational constants (GHZ):           1.58044     0.52413     0.46512
 Zero-point vibrational energy     811638.5 (Joules/Mol)
                                  193.98625 (Kcal/Mol)
 Warning -- explicit consideration of  21 degrees of freedom as
           vibrations may cause significant error
 Vibrational temperatures:     52.07    55.75    73.95    92.00   152.26
          (Kelvin)            224.38   242.56   326.23   335.12   365.82
                              388.03   404.67   427.14   481.23   551.77
                              582.07   600.84   662.54   686.26   715.38
                              811.70  1037.39  1109.74  1126.15  1173.85
                             1221.65  1264.67  1311.17  1337.22  1344.82
                             1375.44  1426.00  1474.87  1490.33  1532.69
                             1539.40  1562.42  1587.96  1634.55  1637.07
                             1667.88  1725.56  1747.60  1773.71  1827.31
                             1846.33  1890.82  1923.53  1949.36  1957.75
                             1993.02  1994.09  2008.59  2019.53  2024.43
                             2030.55  2035.44  2065.15  2074.54  2129.13
                             2138.81  2145.60  2151.37  2158.45  2163.25
                             2165.77  2168.80  2184.98  2188.35  2204.09
                             2381.33  4214.10  4221.99  4334.54  4362.02
                             4370.62  4375.46  4381.98  4382.16  4390.15
                             4395.25  4404.64  4411.66  4427.48  4446.72
                             4467.02  4478.06  4484.38  4487.78  4491.64
                             4498.09  4970.38  5084.92

 Zero-point correction=                           0.309137 (Hartree/Particle)
 Thermal correction to Energy=                    0.323511
 Thermal correction to Enthalpy=                  0.324456
 Thermal correction to Gibbs Free Energy=         0.267326
 Sum of electronic and zero-point Energies=           -465.426657
 Sum of electronic and thermal Energies=              -465.412283
 Sum of electronic and thermal Enthalpies=            -465.411339
 Sum of electronic and thermal Free Energies=         -465.468468

                     E (Thermal)             CV                S
                      KCal/Mol        Cal/Mol-Kelvin    Cal/Mol-Kelvin
 Total                  203.006             52.995            120.239
 Electronic               0.000              0.000              0.000
 Translational            0.889              2.981             41.085
 Rotational               0.889              2.981             31.101
 Vibrational            201.229             47.034             48.053
 Vibration     1          0.594              1.982              5.457
 Vibration     2          0.594              1.981              5.322
 Vibration     3          0.596              1.977              4.763
 Vibration     4          0.597              1.972              4.332
 Vibration     5          0.605              1.945              3.344
 Vibration     6          0.620              1.896              2.598
 Vibration     7          0.625              1.881              2.451
 Vibration     8          0.650              1.800              1.905
 Vibration     9          0.654              1.791              1.856
 Vibration    10          0.665              1.756              1.701
 Vibration    11          0.674              1.729              1.598
 Vibration    12          0.681              1.708              1.526
 Vibration    13          0.691              1.680              1.434
 Vibration    14          0.716              1.607              1.238
 Vibration    15          0.753              1.505              1.025
 Vibration    16          0.770              1.460              0.946
 Vibration    17          0.781              1.432              0.900
 Vibration    18          0.818              1.338              0.765
 Vibration    19          0.834              1.301              0.718
 Vibration    20          0.853              1.256              0.665
 Vibration    21          0.920              1.109              0.516

 Optimization completed.
    -- Stationary point found.
 Normal termination of Gaussian 16 at Thu Jul 11 18:34:00 2024.
 Gaussian 16:  EM64L-G16RevA.03 25-Dec-2016

 ----------------------------------------------------------------------
 # TD(NStates=10, Root=1) B3LYP/6-31G** SCRF=(Solvent=water) volume pop
 =NPA density=current Geom=AllCheck Guess=Read
 ----------------------------------------------------------------------

 Structure from the checkpoint file:  "CAPCBAYULRXQAN-VIFPVBQESA-N_conf_1_2.chk"
 ----------------------------------
 CAPCBAYULRXQAN-VIFPVBQESA-N_conf_1
 ----------------------------------
 Charge =  0 Multiplicity = 1

                         Standard orientation:
 ---------------------------------------------------------------------
 Center     Atomic      Atomic             Coordinates (Angstroms)
 Number     Number       Type             X           Y           Z
 ---------------------------------------------------------------------
      1          6           0        3.403297   -0.086519    1.042830
      2          6           0        2.457919    0.418064   -0.050989
      3          7           0        3.249312    1.184598   -1.036678
      4          6           0        1.635179   -0.714128   -0.701447
      5          6           0        0.698608   -1.507552    0.225389
      6          6           0       -0.371648   -0.673670    0.947319
      7          7           0       -1.194966    0.157630    0.060808
      8          6           0       -1.965031    1.145734    0.827343
      9          6           0       -2.637583    2.212985   -0.037391
     10          6           0       -1.996890   -0.610852   -0.904129
     11          6           0       -3.104215   -1.517171   -0.337535
     12          1           0        4.109273   -0.821547    0.635365
     13          1           0        2.859079   -0.566777    1.861024
     14          1           0        3.982613    0.743372    1.458061
     15          1           0        1.759493    1.134884    0.400376
     16          1           0        2.623219    1.518205   -1.769329
     17          1           0        3.882009    0.538488   -1.510973
     18          1           0        2.336286   -1.415114   -1.177387
     19          1           0        1.039927   -0.271947   -1.509678
     20          1           0        1.280574   -2.025079    0.997902
     21          1           0        0.221844   -2.304094   -0.358671
     22          1           0        0.125230    0.008319    1.647124
     23          1           0       -0.979417   -1.352520    1.574728
     24          1           0       -2.724381    0.674588    1.479687
     25          1           0       -1.257360    1.641971    1.501874
     26          1           0       -3.458654    1.810873   -0.638180
     27          1           0       -1.912605    2.674933   -0.715512
     28          1           0       -3.055908    2.996464    0.602436
     29          1           0       -2.443656    0.099357   -1.607319
     30          1           0       -1.308118   -1.219636   -1.498556
     31          1           0       -3.856322   -0.947303    0.217305
     32          1           0       -3.617317   -2.028740   -1.158726
     33          1           0       -2.704058   -2.285654    0.331216
 ---------------------------------------------------------------------

 SCF Done:  E(RB3LYP) =  -465.735794128     A.U. after    1 cycles

 Excitation energies and oscillator strengths:

 Excited State   1:      Singlet-A      6.4531 eV  192.13 nm  f=0.0085  <S**2>=0.000
      45 -> 46         0.69583
      45 -> 47        -0.10697
 This state for optimization and/or second-order correction.
 Total Energy, E(TD-HF/TD-DFT) =  -465.498646208
 Copying the excited state density for this state as the 1-particle RhoCI density.

 Excited State   2:      Singlet-A      7.2590 eV  170.80 nm  f=0.0256  <S**2>=0.000
      45 -> 47         0.66205
      45 -> 49        -0.15954
      45 -> 50        -0.10192

 Excited State   3:      Singlet-A      7.3404 eV  168.91 nm  f=0.0126  <S**2>=0.000
      44 -> 46         0.57475
      44 -> 47         0.37831

 Excited State   4:      Singlet-A      7.3989 eV  167.57 nm  f=0.0163  <S**2>=0.000
      45 -> 48         0.67719
      45 -> 49         0.17267

 Excited State   5:      Singlet-A      7.5855 eV  163.45 nm  f=0.0265  <S**2>=0.000
      45 -> 47         0.13052
      45 -> 48        -0.17558
      45 -> 49         0.63939
      45 -> 50        -0.17290

 Excited State   6:      Singlet-A      7.8339 eV  158.27 nm  f=0.0141  <S**2>=0.000
      44 -> 46        -0.38436
      44 -> 47         0.51634
      44 -> 49         0.24289
      44 -> 50         0.11701

 Excited State   7:      Singlet-A      7.8785 eV  157.37 nm  f=0.0425  <S**2>=0.000
      45 -> 47         0.13555
      45 -> 49         0.14453
      45 -> 50         0.66553

 Excited State   8:      Singlet-A      8.1131 eV  152.82 nm  f=0.0014  <S**2>=0.000
      45 -> 51         0.66260
      45 -> 52         0.19370

 Excited State   9:      Singlet-A      8.3633 eV  148.25 nm  f=0.0269  <S**2>=0.000
      44 -> 48         0.65593
      44 -> 51         0.17088
      44 -> 52        -0.15710

 Excited State  10:      Singlet-A      8.4719 eV  146.35 nm  f=0.0218  <S**2>=0.000
      45 -> 51        -0.17861
      45 -> 52         0.59577
      45 -> 53         0.20878
      45 -> 54         0.21405
      45 -> 55        -0.10359

 The electronic state is 1-A.
 Alpha  occ. eigenvalues --  -14.31611 -14.30611 -10.20489 -10.20126 -10.19962
 Alpha  occ. eigenvalues --  -10.19869 -10.17578 -10.17136 -10.17037 -10.16890
 Alpha  occ. eigenvalues --  -10.16829  -0.90939  -0.87684  -0.77718  -0.74896
 Alpha  occ. eigenvalues --   -0.73145  -0.70781  -0.66448  -0.63218  -0.60094
 Alpha  occ. eigenvalues --   -0.56284  -0.53700  -0.48728  -0.48536  -0.47270
 Alpha  occ. eigenvalues --   -0.44800  -0.43874  -0.42663  -0.41244  -0.40678
 Alpha  occ. eigenvalues --   -0.39781  -0.38874  -0.37834  -0.37190  -0.36347
 Alpha  occ. eigenvalues --   -0.35935  -0.35145  -0.34203  -0.33483  -0.33018
 Alpha  occ. eigenvalues --   -0.32618  -0.31572  -0.31003  -0.23321  -0.20329
 Alpha virt. eigenvalues --    0.07062   0.09188   0.10538   0.10904   0.12136
 Alpha virt. eigenvalues --    0.12781   0.14099   0.15106   0.15294   0.16006
 Alpha virt. eigenvalues --    0.16842   0.17017   0.17264   0.17920   0.18640

 Mulliken charges:
               1
     1  C   -0.292030
     2  C    0.097869
     3  N   -0.633924
     4  C   -0.162870
     5  C   -0.181843
     6  C   -0.006264
     7  N   -0.220546
     8  C   -0.012457
     9  C   -0.314271
    10  C   -0.026275
    11  C   -0.261898
    12  H    0.085458
    13  H    0.069143
    14  H    0.084062
    15  H    0.001589
    16  H    0.228566
    17  H    0.235801
    18  H    0.077833
    19  H    0.065417
    20  H    0.079352
    21  H    0.059922
    22  H    0.027007
    23  H    0.117481
    24  H    0.132352
    25  H    0.032526
    26  H    0.090211
    27  H    0.110229
    28  H    0.100510
    29  H    0.100632
    30  H    0.088156
    31  H    0.075642
    32  H    0.086112
    33  H    0.066510
 Sum of Mulliken charges =  -0.00000

 Dipole moment (field-independent basis, Debye):
    X=             -3.9331    Y=             -1.4259    Z=             -1.1396  Tot=              4.3360
 Quadrupole moment (field-independent basis, Debye-Ang):
   XX=            -82.0279   YY=            -79.4410   ZZ=            -72.4032
   XY=             -7.7576   XZ=             -3.9633   YZ=             -0.7904

 Summary of Natural Population Analysis:

                                       Natural Population
                Natural  -----------------------------------------------
    Atom  No    Charge         Core      Valence    Rydberg      Total
 -----------------------------------------------------------------------
      C    1   -0.70092      1.99941     4.69183    0.00968     6.70092
      C    2   -0.06005      1.99924     4.04413    0.01668     6.06005
      N    3   -0.92787      1.99967     5.91244    0.01576     7.92787
      C    4   -0.48469      1.99929     4.47278    0.01262     6.48469
      C    5   -0.48215      1.99933     4.47024    0.01258     6.48215
      C    6   -0.32867      1.99927     4.30987    0.01954     6.32867
      N    7   -0.02878      1.99932     5.02072    0.00873     7.02878
      C    8   -0.32552      1.99931     4.30772    0.01849     6.32552
      C    9   -0.71182      1.99945     4.70319    0.00918     6.71182
      C   10   -0.31988      1.99931     4.30278    0.01779     6.31988
      C   11   -0.69719      1.99940     4.68827    0.00952     6.69719
      H   12    0.22010      0.00000     0.77581    0.00410     0.77990
      H   13    0.20799      0.00000     0.78036    0.01165     0.79201
      H   14    0.22651      0.00000     0.76873    0.00476     0.77349
      H   15    0.16852      0.00000     0.79904    0.03244     0.83148
      H   16    0.37078      0.00000     0.62229    0.00694     0.62922
      H   17    0.37533      0.00000     0.62052    0.00414     0.62467
      H   18    0.22975      0.00000     0.76465    0.00560     0.77025
      H   19    0.21102      0.00000     0.77923    0.00975     0.78898
      H   20    0.22691      0.00000     0.76212    0.01097     0.77309
      H   21    0.21182      0.00000     0.77038    0.01780     0.78818
      H   22    0.16893      0.00000     0.79278    0.03829     0.83107
      H   23    0.24979      0.00000     0.72858    0.02164     0.75021
      H   24    0.25625      0.00000     0.72385    0.01990     0.74375
      H   25    0.17763      0.00000     0.78513    0.03724     0.82237
      H   26    0.21640      0.00000     0.76950    0.01410     0.78360
      H   27    0.23446      0.00000     0.75808    0.00745     0.76554
      H   28    0.23397      0.00000     0.75801    0.00801     0.76603
      H   29    0.23064      0.00000     0.75223    0.01713     0.76936
      H   30    0.21804      0.00000     0.76062    0.02134     0.78196
      H   31    0.20733      0.00000     0.77347    0.01920     0.79267
      H   32    0.22443      0.00000     0.76182    0.01375     0.77557
      H   33    0.20090      0.00000     0.77728    0.02182     0.79910
 =======================================================================
   * Total *   -0.00000     21.99299    67.50845    0.49856    90.00000

 1\1\GINC-CN34\SP\RB3LYP TD-FC\6-31G(d,p)\C9H22N2\QDUEZ\11-Jul-2024\0\\
 # TD(NStates=10, Root=1) B3LYP/6-31G** SCRF=(Solvent=water) volume pop
 =NPA density=current Geom=AllCheck Guess=Read\\CAPCBAYULRXQAN-VIFPVBQE
 SA-N_conf_1\\0,1\C,0,3.4562427686,1.1042826289,0.2607522746\C,0,2.4951
 777054,0.3016786833,-0.6207037485\N,0,3.2367823366,-0.177014559,-1.806
 5937597\C,0,1.7945644171,-0.8418924677,0.1429993452\C,0,0.9122719912,-
 0.4368202416,1.3359735473\C,0,-0.246283714,0.5161914629,1.0020485437\N
 ,0,-1.1204872081,0.0537806458,-0.0827369361\C,0,-1.9952750453,1.135252

 Normal termination of Gaussian 16 at Thu Jul 11 19:15:44 2024.
