 Gaussian 16, Revision A.03,

 -------------------------------------------------------
 # opt=CalcFc B3LYP/6-31G** SCRF=(Solvent=water) scf=xqc
 -------------------------------------------------------

 ----------------------------------
 CAPCBAYULRXQAN-VIFPVBQESA-N_conf_3
 ----------------------------------
 Symbolic Z-matrix:
 Charge =  0 Multiplicity = 1

 SCF Done:  E(RB3LYP) =  -465.731841313     A.U. after   11 cycles
 SCF Done:  E(RB3LYP) =  -465.734473055     A.U. after    9 cycles
 SCF Done:  E(RB3LYP) =  -465.734595345     A.U. after    9 cycles
 SCF Done:  E(RB3LYP) =  -465.734603779     A.U. after    7 cycles
 SCF Done:  E(RB3LYP) =  -465.734604730     A.U. after    7 cycles
 SCF Done:  E(RB3LYP) =  -465.734604940     A.U. after    7 cycles
 Optimization completed.
    -- Stationary point found.
 Normal termination of Gaussian 16 at Thu Jul 11 18:01:02 2024.

 ----------------------------------------------------------------------
 # freq B3LYP/6-31G** SCRF=(Solvent=water) volume NMR pop=NPA density=c
 urrent Geom=AllCheck Guess=Read
 ----------------------------------------------------------------------

 Structure from the checkpoint file:  "CAPCBAYULRXQAN-VIFPVBQESA-N_conf_3_1.chk"
 ----------------------------------
 CAPCBAYULRXQAN-VIFPVBQESA-N_conf_3
 ----------------------------------
 Charge =  0 Multiplicity = 1

 SCF Done:  E(RB3LYP) =  -465.734604940     A.U. after    1 cycles

      1  C    Isotropic =   167.0589   Anisotropy =    37.9469

      2  C    Isotropic =   140.9454   Anisotropy =    13.9160

      3  N    Isotropic =   220.8020   Anisotropy =    37.3298

      4  C    Isotropic =   150.9647   Anisotropy =    36.4279

      5  C    Isotropic =   166.9932   Anisotropy =    27.4887

      6  C    Isotropic =   138.3842   Anisotropy =    39.6578

      7  N    Isotropic =   209.6946   Anisotropy =    48.2992

      8  C    Isotropic =   149.7585   Anisotropy =    40.2566

      9  C    Isotropic =   177.6686   Anisotropy =    22.1513

     10  C    Isotropic =   138.1411   Anisotropy =    52.3157

     11  C    Isotropic =   175.8277   Anisotropy =    25.1939

     12  H    Isotropic =    30.8910   Anisotropy =     6.5194

     13  H    Isotropic =    30.7783   Anisotropy =    10.0248

     14  H    Isotropic =    30.7930   Anisotropy =     8.7274

     15  H    Isotropic =    28.7328   Anisotropy =     6.3804

     16  H    Isotropic =    30.7204   Anisotropy =    12.0607

     17  H    Isotropic =    31.2097   Anisotropy =    14.5330

     18  H    Isotropic =    30.4863   Anisotropy =     4.5581

     19  H    Isotropic =    30.3294   Anisotropy =     5.9048

     20  H    Isotropic =    31.0381   Anisotropy =     7.9770

     21  H    Isotropic =    29.4640   Anisotropy =     5.1573

     22  H    Isotropic =    28.3529   Anisotropy =     6.4921

     23  H    Isotropic =    29.2660   Anisotropy =     6.5678

     24  H    Isotropic =    29.1337   Anisotropy =     6.3262

     25  H    Isotropic =    28.9704   Anisotropy =     5.6561

     26  H    Isotropic =    30.9540   Anisotropy =     9.3247

     27  H    Isotropic =    30.4034   Anisotropy =     6.5924

     28  H    Isotropic =    30.7909   Anisotropy =    10.4953

     29  H    Isotropic =    28.8841   Anisotropy =     5.5684

     30  H    Isotropic =    29.1372   Anisotropy =     4.8923

     31  H    Isotropic =    30.5275   Anisotropy =     7.0710

     32  H    Isotropic =    30.9665   Anisotropy =    10.4514

     33  H    Isotropic =    30.9586   Anisotropy =     8.6368

  Exact polarizability: 149.739   0.031 147.593  -1.080   0.607 135.209
 Approx polarizability: 150.356   0.576 153.530  -1.072   1.659 149.933

                      1                      2                      3
                      A                      A                      A
 Frequencies --     31.1244                43.8439                71.4715
 Red. masses --      3.0571                 3.1016                 2.6502
 Frc consts  --      0.0017                 0.0035                 0.0080
 IR Inten    --      1.3307                 0.9128                 0.6675

                      4                      5                      6
                      A                      A                      A
 Frequencies --     88.2702                95.4469               114.6336
 Red. masses --      2.3902                 1.9572                 2.3767
 Frc consts  --      0.0110                 0.0105                 0.0184
 IR Inten    --      0.0722                 0.3327                 2.4181

                      7                      8                      9
                      A                      A                      A
 Frequencies --    170.6261               207.9581               224.7188
 Red. masses --      2.6190                 1.3569                 1.8002
 Frc consts  --      0.0449                 0.0346                 0.0536
 IR Inten    --      0.1337                 3.1887                 0.6446

                     10                     11                     12
                      A                      A                      A
 Frequencies --    232.3075               237.8002               294.2224
 Red. masses --      1.3289                 1.1874                 1.1340
 Frc consts  --      0.0423                 0.0396                 0.0578
 IR Inten    --      0.0011                11.7758                65.2327

                     13                     14                     15
                      A                      A                      A
 Frequencies --    306.1187               308.7576               367.7145
 Red. masses --      1.9511                 1.6259                 2.5867
 Frc consts  --      0.1077                 0.0913                 0.2061
 IR Inten    --      8.9191                 2.5653                 0.7061

                     16                     17                     18
                      A                      A                      A
 Frequencies --    380.1513               421.6601               457.3875
 Red. masses --      2.8580                 2.1450                 2.6294
 Frc consts  --      0.2434                 0.2247                 0.3241
 IR Inten    --      1.6738                 4.6515                 8.2153

                     19                     20                     21
                      A                      A                      A
 Frequencies --    475.2108               481.9196               564.3630
 Red. masses --      2.4433                 2.1670                 2.0457
 Frc consts  --      0.3251                 0.2965                 0.3839
 IR Inten    --      7.3128                12.9040                 4.6845

                     22                     23                     24
                      A                      A                      A
 Frequencies --    727.3204               779.9029               806.0281
 Red. masses --      2.3478                 1.4132                 1.2259
 Frc consts  --      0.7317                 0.5064                 0.4692
 IR Inten    --     12.8074                 4.4069                 4.0429

                     25                     26                     27
                      A                      A                      A
 Frequencies --    810.1054               825.9822               872.6832
 Red. masses --      1.1636                 2.1207                 2.1092
 Frc consts  --      0.4499                 0.8525                 0.9464
 IR Inten    --      0.2656                14.3948                 5.2465

                     28                     29                     30
                      A                      A                      A
 Frequencies --    907.0780               918.4690               938.0548
 Red. masses --      1.4141                 1.9617                 1.7768
 Frc consts  --      0.6855                 0.9750                 0.9212
 IR Inten    --    161.1181                 5.8197                 1.4462

                     31                     32                     33
                      A                      A                      A
 Frequencies --    978.1702              1002.1723              1024.0580
 Red. masses --      1.5637                 1.9282                 2.0026
 Frc consts  --      0.8815                 1.1410                 1.2374
 IR Inten    --      4.9907                 7.8640                 1.6801

                     34                     35                     36
                      A                      A                      A
 Frequencies --   1032.4042              1070.3197              1079.6416
 Red. masses --      1.6541                 2.5789                 2.3991
 Frc consts  --      1.0387                 1.7407                 1.6476
 IR Inten    --     17.5848                10.1061                38.6700

                     37                     38                     39
                      A                      A                      A
 Frequencies --   1088.4690              1106.7168              1120.6858
 Red. masses --      2.1781                 1.6754                 1.9437
 Frc consts  --      1.5204                 1.2090                 1.4383
 IR Inten    --     23.0407                25.4442                43.4592

                     40                     41                     42
                      A                      A                      A
 Frequencies --   1140.6529              1165.0278              1186.1375
 Red. masses --      1.8318                 2.0258                 1.6557
 Frc consts  --      1.4042                 1.6200                 1.3724
 IR Inten    --     10.1948                12.6789                15.0732

                     43                     44                     45
                      A                      A                      A
 Frequencies --   1235.6469              1249.1213              1274.8905
 Red. masses --      1.6862                 2.0996                 1.2409
 Frc consts  --      1.5168                 1.9302                 1.1883
 IR Inten    --      5.2272                48.6156                 4.6566

                     46                     47                     48
                      A                      A                      A
 Frequencies --   1293.6836              1321.1679              1329.4843
 Red. masses --      1.3235                 1.1351                 1.1614
 Frc consts  --      1.3051                 1.1673                 1.2095
 IR Inten    --      5.9136                 4.2589                15.7071

                     49                     50                     51
                      A                      A                      A
 Frequencies --   1335.5127              1367.0799              1388.8604
 Red. masses --      1.2121                 1.3510                 1.2936
 Frc consts  --      1.2737                 1.4876                 1.4701
 IR Inten    --     22.9606                 7.8872                22.2954

                     52                     53                     54
                      A                      A                      A
 Frequencies --   1390.3310              1397.6650              1402.7858
 Red. masses --      1.2559                 1.3097                 1.3030
 Frc consts  --      1.4304                 1.5074                 1.5107
 IR Inten    --     54.2424                 7.9380                15.5417

                     55                     56                     57
                      A                      A                      A
 Frequencies --   1412.0838              1416.9259              1421.4856
 Red. masses --      1.2441                 1.2970                 1.3183
 Frc consts  --      1.4616                 1.5342                 1.5694
 IR Inten    --      6.4610                 4.4158                24.7706

                     58                     59                     60
                      A                      A                      A
 Frequencies --   1427.3872              1431.5918              1476.7317
 Red. masses --      1.6601                 1.4119                 1.0880
 Frc consts  --      1.9929                 1.7049                 1.3980
 IR Inten    --     18.6779                12.7216                 0.4467

                     61                     62                     63
                      A                      A                      A
 Frequencies --   1484.6278              1491.9529              1495.0700
 Red. masses --      1.0730                 1.0699                 1.0641
 Frc consts  --      1.3934                 1.4031                 1.4014
 IR Inten    --      8.5617                 0.8390                 1.8951

                     64                     65                     66
                      A                      A                      A
 Frequencies --   1496.9886              1497.5586              1500.9740
 Red. masses --      1.0459                 1.0576                 1.0625
 Frc consts  --      1.3809                 1.3975                 1.4104
 IR Inten    --      3.3530                 3.5759                12.0533

                     67                     68                     69
                      A                      A                      A
 Frequencies --   1505.0876              1508.2505              1518.4787
 Red. masses --      1.0559                 1.0483                 1.0854
 Frc consts  --      1.4093                 1.4051                 1.4746
 IR Inten    --      1.4185                 2.0801                 5.7365

                     70                     71                     72
                      A                      A                      A
 Frequencies --   1529.0981              1659.6512              2929.3936
 Red. masses --      1.0914                 1.0884                 1.0813
 Frc consts  --      1.5035                 1.7663                 5.4668
 IR Inten    --      2.0635                54.1561                88.1502

                     73                     74                     75
                      A                      A                      A
 Frequencies --   2929.9620              2948.5349              3012.2375
 Red. masses --      1.0743                 1.0723                 1.0648
 Frc consts  --      5.4339                 5.4927                 5.6924
 IR Inten    --    145.7597               156.3357                28.2217

                     76                     77                     78
                      A                      A                      A
 Frequencies --   3026.6085              3030.7652              3036.4348
 Red. masses --      1.0616                 1.0597                 1.0378
 Frc consts  --      5.7293                 5.7351                 5.6374
 IR Inten    --     49.4666                78.5309                41.0156

                     79                     80                     81
                      A                      A                      A
 Frequencies --   3041.9811              3046.1752              3055.6570
 Red. masses --      1.0359                 1.0372                 1.0948
 Frc consts  --      5.6479                 5.6702                 6.0228
 IR Inten    --     30.7667                37.0364                15.7807

                     82                     83                     84
                      A                      A                      A
 Frequencies --   3069.7131              3074.9711              3077.5962
 Red. masses --      1.1014                 1.0866                 1.0910
 Frc consts  --      6.1152                 6.0534                 6.0884
 IR Inten    --     54.6222                36.1071                13.3426

                     85                     86                     87
                      A                      A                      A
 Frequencies --   3082.5398              3102.6367              3110.8290
 Red. masses --      1.1002                 1.1022                 1.1010
 Frc consts  --      6.1592                 6.2513                 6.2776
 IR Inten    --    138.6678                61.8486                68.8214

                     88                     89                     90
                      A                      A                      A
 Frequencies --   3116.7985              3117.0879              3118.8860
 Red. masses --      1.1023                 1.1022                 1.1033
 Frc consts  --      6.3092                 6.3096                 6.3232
 IR Inten    --     57.2217                36.5511                77.8882

                     91                     92                     93
                      A                      A                      A
 Frequencies --   3119.9391              3479.4288              3555.2600
 Red. masses --      1.1025                 1.0512                 1.0907
 Frc consts  --      6.3228                 7.4982                 8.1230
 IR Inten    --     79.8175                 2.3058                 0.1913

 - Thermochemistry -
 -------------------
 Temperature   298.150 Kelvin.  Pressure   1.00000 Atm.
 Atom     1 has atomic number  6 and mass  12.00000

 Molecular mass:   158.17830 amu.
 Principal axes and moments of inertia in atomic units:
                           1         2         3
     Eigenvalues --  1215.610393590.922204214.59962
           X            0.99997  -0.00513  -0.00575
           Y            0.00509   0.99996  -0.00744
           Z            0.00578   0.00742   0.99996
 This molecule is an asymmetric top.
 Rotational symmetry number  1.
 Warning -- assumption of classical behavior for rotation
           may cause significant error
 Rotational temperatures (Kelvin)      0.07125     0.02412     0.02055
 Rotational constants (GHZ):           1.48464     0.50258     0.42821
 Zero-point vibrational energy     810466.4 (Joules/Mol)
                                  193.70611 (Kcal/Mol)
 Warning -- explicit consideration of  21 degrees of freedom as
           vibrations may cause significant error
 Vibrational temperatures:     44.78    63.08   102.83   127.00   137.33
          (Kelvin)            164.93   245.49   299.21   323.32   334.24
                              342.14   423.32   440.44   444.23   529.06
                              546.95   606.67   658.08   683.72   693.37
                              811.99  1046.45  1122.11  1159.69  1165.56
                             1188.40  1255.60  1305.08  1321.47  1349.65
                             1407.37  1441.90  1473.39  1485.40  1539.95
                             1553.36  1566.06  1592.32  1612.42  1641.15
                             1676.22  1706.59  1777.82  1797.21  1834.28
                             1861.32  1900.87  1912.83  1921.50  1966.92
                             1998.26  2000.38  2010.93  2018.30  2031.67
                             2038.64  2045.20  2053.69  2059.74  2124.69
                             2136.05  2146.59  2151.07  2153.83  2154.65
                             2159.57  2165.49  2170.04  2184.75  2200.03
                             2387.87  4214.74  4215.56  4242.28  4333.94
                             4354.61  4360.60  4368.75  4376.73  4382.77
                             4396.41  4416.63  4424.20  4427.97  4435.09
                             4464.00  4475.79  4484.38  4484.79  4487.38
                             4488.90  5006.12  5115.23

 Zero-point correction=                           0.308690 (Hartree/Particle)
 Thermal correction to Energy=                    0.323228
 Thermal correction to Enthalpy=                  0.324173
 Thermal correction to Gibbs Free Energy=         0.266803
 Sum of electronic and zero-point Energies=           -465.425915
 Sum of electronic and thermal Energies=              -465.411377
 Sum of electronic and thermal Enthalpies=            -465.410432
 Sum of electronic and thermal Free Energies=         -465.467802

                     E (Thermal)             CV                S
                      KCal/Mol        Cal/Mol-Kelvin    Cal/Mol-Kelvin
 Total                  202.829             53.227            120.744
 Electronic               0.000              0.000              0.000
 Translational            0.889              2.981             41.085
 Rotational               0.889              2.981             31.287
 Vibrational            201.051             47.265             48.372
 Vibration     1          0.594              1.983              5.756
 Vibration     2          0.595              1.980              5.077
 Vibration     3          0.598              1.968              4.112
 Vibration     4          0.601              1.957              3.698
 Vibration     5          0.603              1.952              3.545
 Vibration     6          0.608              1.937              3.189
 Vibration     7          0.626              1.879              2.429
 Vibration     8          0.641              1.829              2.062
 Vibration     9          0.649              1.803              1.921
 Vibration    10          0.653              1.792              1.861
 Vibration    11          0.656              1.783              1.819
 Vibration    12          0.689              1.685              1.450
 Vibration    13          0.697              1.662              1.383
 Vibration    14          0.698              1.657              1.369
 Vibration    15          0.740              1.539              1.089
 Vibration    16          0.750              1.512              1.039
 Vibration    17          0.784              1.423              0.886
 Vibration    18          0.816              1.345              0.774
 Vibration    19          0.832              1.305              0.723
 Vibration    20          0.838              1.290              0.705
 Vibration    21          0.920              1.108              0.515

                           ! Non-Optimized Parameters !
 Normal termination of Gaussian 16 at Thu Jul 11 18:35:15 2024.
 Gaussian 16:  EM64L-G16RevA.03 25-Dec-2016

 ----------------------------------------------------------------------
 # TD(NStates=10, Root=1) B3LYP/6-31G** SCRF=(Solvent=water) volume pop
 =NPA density=current Geom=AllCheck Guess=Read
 ----------------------------------------------------------------------

 Structure from the checkpoint file:  "CAPCBAYULRXQAN-VIFPVBQESA-N_conf_3_2.chk"
 ----------------------------------
 CAPCBAYULRXQAN-VIFPVBQESA-N_conf_3
 ----------------------------------
 Charge =  0 Multiplicity = 1

                         Standard orientation:
 ---------------------------------------------------------------------
 Center     Atomic      Atomic             Coordinates (Angstroms)
 Number     Number       Type             X           Y           Z
 ---------------------------------------------------------------------
      1          6           0       -3.777015    1.190686   -0.276665
      2          6           0       -2.941041   -0.021185    0.141113
      3          7           0       -3.044564   -1.052497   -0.910406
      4          6           0       -1.468512    0.366102    0.353363
      5          6           0       -0.584841   -0.780420    0.864532
      6          6           0        0.836862   -0.384986    1.325882
      7          7           0        1.812538    0.084222    0.333679
      8          6           0        2.047431   -0.834470   -0.783059
      9          6           0        2.617554   -2.188234   -0.355690
     10          6           0        1.653699    1.476821   -0.103721
     11          6           0        2.995307    2.163952   -0.379174
     12          1           0       -3.413465    1.599683   -1.225772
     13          1           0       -4.830020    0.916656   -0.408284
     14          1           0       -3.729056    1.978806    0.481356
     15          1           0       -3.331301   -0.382337    1.110889
     16          1           0       -2.612915   -1.913560   -0.580001
     17          1           0       -4.027776   -1.286805   -1.041241
     18          1           0       -1.434980    1.193397    1.075192
     19          1           0       -1.077513    0.755335   -0.594387
     20          1           0       -1.076565   -1.246710    1.730867
     21          1           0       -0.511567   -1.565765    0.101944
     22          1           0        1.269796   -1.257836    1.829896
     23          1           0        0.756623    0.395247    2.092744
     24          1           0        2.768115   -0.355053   -1.453370
     25          1           0        1.134969   -0.994791   -1.388118
     26          1           0        3.526768   -2.053575    0.239166
     27          1           0        1.906493   -2.770140    0.238494
     28          1           0        2.869651   -2.783032   -1.239417
     29          1           0        1.012194    1.562458   -0.998868
     30          1           0        1.139469    2.024010    0.692863
     31          1           0        3.551078    1.672579   -1.184215
     32          1           0        2.834801    3.205110   -0.679759
     33          1           0        3.622715    2.154655    0.517626
 ---------------------------------------------------------------------

 SCF Done:  E(RB3LYP) =  -465.734604940     A.U. after    1 cycles

 Excitation energies and oscillator strengths:

 Excited State   1:      Singlet-A      6.5552 eV  189.14 nm  f=0.0325  <S**2>=0.000
      45 -> 46         0.65200
      45 -> 47        -0.26902
 This state for optimization and/or second-order correction.
 Total Energy, E(TD-HF/TD-DFT) =  -465.493704178
 Copying the excited state density for this state as the 1-particle RhoCI density.

 Excited State   2:      Singlet-A      7.0521 eV  175.81 nm  f=0.0115  <S**2>=0.000
      45 -> 46         0.18757
      45 -> 47         0.45799
      45 -> 48         0.48691

 Excited State   3:      Singlet-A      7.2173 eV  171.79 nm  f=0.0077  <S**2>=0.000
      44 -> 46        -0.11566
      45 -> 46        -0.17912
      45 -> 47        -0.44290
      45 -> 48         0.49158

 Excited State   4:      Singlet-A      7.3802 eV  168.00 nm  f=0.0284  <S**2>=0.000
      44 -> 46         0.61517
      44 -> 47         0.30134
      45 -> 47        -0.11002

 Excited State   5:      Singlet-A      7.4429 eV  166.58 nm  f=0.0330  <S**2>=0.000
      45 -> 49         0.68962

 Excited State   6:      Singlet-A      7.6525 eV  162.02 nm  f=0.0632  <S**2>=0.000
      45 -> 50         0.68772

 Excited State   7:      Singlet-A      8.1413 eV  152.29 nm  f=0.0095  <S**2>=0.000
      44 -> 46        -0.30489
      44 -> 47         0.60370
      44 -> 48        -0.12361
      44 -> 50         0.11197

 Excited State   8:      Singlet-A      8.2296 eV  150.66 nm  f=0.0346  <S**2>=0.000
      45 -> 51         0.66528
      45 -> 53         0.10273

 Excited State   9:      Singlet-A      8.3218 eV  148.99 nm  f=0.0572  <S**2>=0.000
      45 -> 52         0.61001
      45 -> 53         0.28603
      45 -> 56        -0.15679

 Excited State  10:      Singlet-A      8.3943 eV  147.70 nm  f=0.0035  <S**2>=0.000
      44 -> 48         0.63791
      44 -> 50         0.12351
      44 -> 51        -0.19088

 The electronic state is 1-A.
 Alpha  occ. eigenvalues --  -14.31422 -14.30674 -10.20691 -10.20101 -10.20089
 Alpha  occ. eigenvalues --  -10.20019 -10.17419 -10.17191 -10.17092 -10.16934
 Alpha  occ. eigenvalues --  -10.16892  -0.90783  -0.87810  -0.77407  -0.75353
 Alpha  occ. eigenvalues --   -0.73583  -0.71026  -0.66661  -0.61954  -0.60325
 Alpha  occ. eigenvalues --   -0.55876  -0.54576  -0.48865  -0.47497  -0.47000
 Alpha  occ. eigenvalues --   -0.46584  -0.44314  -0.42858  -0.41485  -0.40838
 Alpha  occ. eigenvalues --   -0.39984  -0.38114  -0.37416  -0.36899  -0.36360
 Alpha  occ. eigenvalues --   -0.36089  -0.35043  -0.34651  -0.33672  -0.32655
 Alpha  occ. eigenvalues --   -0.32469  -0.32105  -0.30951  -0.23641  -0.19833
 Alpha virt. eigenvalues --    0.07657   0.09197   0.10034   0.11190   0.11905
 Alpha virt. eigenvalues --    0.13044   0.13986   0.14723   0.15076   0.15899
 Alpha virt. eigenvalues --    0.16468   0.16650   0.17161   0.17908   0.17987

 Mulliken charges:
               1
     1  C   -0.313912
     2  C    0.065107
     3  N   -0.613128
     4  C   -0.109864
     5  C   -0.105728
     6  C   -0.048165
     7  N   -0.224226
     8  C    0.024301
     9  C   -0.311976
    10  C   -0.028429
    11  C   -0.326543
    12  H    0.100368
    13  H    0.093653
    14  H    0.092764
    15  H    0.053896
    16  H    0.196638
    17  H    0.209131
    18  H    0.032868
    19  H    0.025526
    20  H    0.045151
    21  H    0.009407
    22  H    0.097863
    23  H    0.078926
    24  H    0.060218
    25  H    0.051859
    26  H    0.104393
    27  H    0.073315
    28  H    0.091241
    29  H    0.126351
    30  H    0.096734
    31  H    0.109498
    32  H    0.115485
    33  H    0.127279
 Sum of Mulliken charges =  -0.00000

 Dipole moment (field-independent basis, Debye):
    X=              3.5439    Y=              1.3023    Z=              1.7436  Tot=              4.1587
 Quadrupole moment (field-independent basis, Debye-Ang):
   XX=            -71.2998   YY=            -73.3871   ZZ=            -78.0660
   XY=              3.7828   XZ=             -2.2036   YZ=             -1.4810

 Summary of Natural Population Analysis:

                                       Natural Population
                Natural  -----------------------------------------------
    Atom  No    Charge         Core      Valence    Rydberg      Total
 -----------------------------------------------------------------------
      C    1   -0.69482      1.99942     4.68643    0.00898     6.69482
      C    2   -0.05110      1.99923     4.03662    0.01525     6.05110
      N    3   -0.93481      1.99963     5.91977    0.01541     7.93481
      C    4   -0.48738      1.99927     4.47313    0.01498     6.48738
      C    5   -0.47214      1.99928     4.46122    0.01165     6.47214
      C    6   -0.31120      1.99929     4.29312    0.01880     6.31120
      N    7   -0.04295      1.99935     5.03467    0.00893     7.04295
      C    8   -0.31959      1.99929     4.30379    0.01650     6.31959
      C    9   -0.71479      1.99945     4.70489    0.01044     6.71479
      C   10   -0.31289      1.99930     4.29787    0.01572     6.31289
      C   11   -0.70394      1.99944     4.69489    0.00961     6.70394
      H   12    0.22907      0.00000     0.76811    0.00282     0.77093
      H   13    0.22980      0.00000     0.76714    0.00306     0.77020
      H   14    0.22778      0.00000     0.76846    0.00376     0.77222
      H   15    0.19880      0.00000     0.79163    0.00957     0.80120
      H   16    0.34906      0.00000     0.63453    0.01641     0.65094
      H   17    0.35765      0.00000     0.63128    0.01108     0.64235
      H   18    0.19964      0.00000     0.78094    0.01942     0.80036
      H   19    0.18375      0.00000     0.79297    0.02327     0.81625
      H   20    0.20730      0.00000     0.76987    0.02283     0.79270
      H   21    0.16686      0.00000     0.79347    0.03968     0.83314
      H   22    0.23147      0.00000     0.74900    0.01953     0.76853
      H   23    0.21440      0.00000     0.76258    0.02302     0.78560
      H   24    0.20159      0.00000     0.77256    0.02585     0.79841
      H   25    0.20080      0.00000     0.75550    0.04370     0.79920
      H   26    0.23178      0.00000     0.76070    0.00752     0.76822
      H   27    0.20288      0.00000     0.77869    0.01843     0.79712
      H   28    0.22862      0.00000     0.76131    0.01008     0.77138
      H   29    0.24503      0.00000     0.73384    0.02113     0.75497
      H   30    0.22723      0.00000     0.75346    0.01931     0.77277
      H   31    0.22710      0.00000     0.76393    0.00896     0.77290
      H   32    0.24166      0.00000     0.75192    0.00641     0.75834
      H   33    0.24336      0.00000     0.75356    0.00308     0.75664
 =======================================================================
   * Total *    0.00000     21.99295    67.50185    0.50520    90.00000

 1\1\GINC-CN34\SP\RB3LYP TD-FC\6-31G(d,p)\C9H22N2\QDUEZ\11-Jul-2024\0\\
 # TD(NStates=10, Root=1) B3LYP/6-31G** SCRF=(Solvent=water) volume pop
 =NPA density=current Geom=AllCheck Guess=Read\\CAPCBAYULRXQAN-VIFPVBQE
 SA-N_conf_3\\0,1\C,0,3.8124281661,-0.620921849,0.7850935684\C,0,2.9242
 671908,-0.1114288359,-0.3522756232\N,0,2.7598727043,-1.1922869278,-1.3
 446133413\C,0,1.5493265487,0.332733942,0.172741392\C,0,0.6351293269,0.
 9434299802,-0.898694426\C,0,-0.6518451466,1.6261505166,-0.3809670444\N
 ,0,-1.7091750777,0.8066377922,0.2248559448\C,0,-2.2040452977,-0.284170

 Normal termination of Gaussian 16 at Thu Jul 11 19:15:59 2024.
