 Gaussian 16, Revision A.03,

 -------------------------------------------------------
 # opt=CalcFc B3LYP/6-31G** SCRF=(Solvent=water) scf=xqc
 -------------------------------------------------------

 ----------------------------------
 CAPCBAYULRXQAN-VIFPVBQESA-N_conf_2
 ----------------------------------
 Symbolic Z-matrix:
 Charge =  0 Multiplicity = 1

 SCF Done:  E(RB3LYP) =  -465.730931962     A.U. after   11 cycles
 SCF Done:  E(RB3LYP) =  -465.734060244     A.U. after    9 cycles
 SCF Done:  E(RB3LYP) =  -465.734221265     A.U. after    9 cycles
 SCF Done:  E(RB3LYP) =  -465.734229249     A.U. after    7 cycles
 SCF Done:  E(RB3LYP) =  -465.734230503     A.U. after    7 cycles
 SCF Done:  E(RB3LYP) =  -465.734230725     A.U. after    7 cycles
 SCF Done:  E(RB3LYP) =  -465.734230740     A.U. after    5 cycles
 Optimization completed.
    -- Stationary point found.
 Normal termination of Gaussian 16 at Thu Jul 11 18:03:04 2024.

 ----------------------------------------------------------------------
 # freq B3LYP/6-31G** SCRF=(Solvent=water) volume NMR pop=NPA density=c
 urrent Geom=AllCheck Guess=Read
 ----------------------------------------------------------------------

 Structure from the checkpoint file:  "CAPCBAYULRXQAN-VIFPVBQESA-N_conf_2_1.chk"
 ----------------------------------
 CAPCBAYULRXQAN-VIFPVBQESA-N_conf_2
 ----------------------------------
 Charge =  0 Multiplicity = 1

 SCF Done:  E(RB3LYP) =  -465.734230740     A.U. after    1 cycles

      1  C    Isotropic =   171.2522   Anisotropy =    30.1673

      2  C    Isotropic =   141.5000   Anisotropy =    30.8851

      3  N    Isotropic =   212.4999   Anisotropy =    51.4041

      4  C    Isotropic =   146.2838   Anisotropy =    43.4885

      5  C    Isotropic =   166.6179   Anisotropy =    25.7206

      6  C    Isotropic =   138.8144   Anisotropy =    41.8545

      7  N    Isotropic =   210.4347   Anisotropy =    48.6316

      8  C    Isotropic =   149.7077   Anisotropy =    40.3737

      9  C    Isotropic =   177.5529   Anisotropy =    22.2962

     10  C    Isotropic =   137.8316   Anisotropy =    52.5046

     11  C    Isotropic =   175.6239   Anisotropy =    25.3237

     12  H    Isotropic =    31.3100   Anisotropy =     7.4341

     13  H    Isotropic =    30.6692   Anisotropy =     9.8650

     14  H    Isotropic =    30.4566   Anisotropy =     7.4117

     15  H    Isotropic =    29.0808   Anisotropy =     4.8354

     16  H    Isotropic =    31.1514   Anisotropy =    12.6400

     17  H    Isotropic =    31.4700   Anisotropy =    10.3272

     18  H    Isotropic =    29.9891   Anisotropy =     7.6344

     19  H    Isotropic =    30.6925   Anisotropy =     2.6846

     20  H    Isotropic =    30.8429   Anisotropy =     7.6676

     21  H    Isotropic =    29.7295   Anisotropy =     4.9676

     22  H    Isotropic =    28.4008   Anisotropy =     6.4652

     23  H    Isotropic =    29.2817   Anisotropy =     6.3250

     24  H    Isotropic =    28.9381   Anisotropy =     5.7131

     25  H    Isotropic =    29.1536   Anisotropy =     6.3850

     26  H    Isotropic =    30.8013   Anisotropy =    10.5293

     27  H    Isotropic =    30.4266   Anisotropy =     6.6399

     28  H    Isotropic =    30.9673   Anisotropy =     9.1845

     29  H    Isotropic =    29.1188   Anisotropy =     4.7421

     30  H    Isotropic =    28.8383   Anisotropy =     5.6463

     31  H    Isotropic =    30.9834   Anisotropy =    10.4836

     32  H    Isotropic =    30.9649   Anisotropy =     8.4871

     33  H    Isotropic =    30.5521   Anisotropy =     7.0668

  Exact polarizability: 147.968  -0.488 147.691   4.163  -0.470 136.302
 Approx polarizability: 148.551   0.183 154.571   3.864  -0.098 151.101

                      1                      2                      3
                      A                      A                      A
 Frequencies --     26.2417                37.6144                72.1709
 Red. masses --      2.7090                 3.1653                 2.7235
 Frc consts  --      0.0011                 0.0026                 0.0084
 IR Inten    --      0.1941                 0.8836                 0.3695

                      4                      5                      6
                      A                      A                      A
 Frequencies --     88.6212                96.7244               113.1110
 Red. masses --      2.5471                 1.9956                 2.1274
 Frc consts  --      0.0118                 0.0110                 0.0160
 IR Inten    --      0.5053                 0.3386                 0.3843

                      7                      8                      9
                      A                      A                      A
 Frequencies --    168.4023               206.2227               223.9216
 Red. masses --      3.1014                 1.3700                 1.7420
 Frc consts  --      0.0518                 0.0343                 0.0515
 IR Inten    --      3.2919                 1.9038                 0.2536

                     10                     11                     12
                      A                      A                      A
 Frequencies --    232.5819               239.4583               269.7184
 Red. masses --      1.4014                 1.1743                 1.0744
 Frc consts  --      0.0447                 0.0397                 0.0461
 IR Inten    --      0.0959                 5.4364                61.5840

                     13                     14                     15
                      A                      A                      A
 Frequencies --    306.2261               306.5707               371.2672
 Red. masses --      1.9234                 1.6709                 2.5955
 Frc consts  --      0.1063                 0.0925                 0.2108
 IR Inten    --      1.7817                 1.5188                 2.7174

                     16                     17                     18
                      A                      A                      A
 Frequencies --    398.3073               421.2730               437.9766
 Red. masses --      2.7609                 2.1655                 2.6461
 Frc consts  --      0.2581                 0.2264                 0.2991
 IR Inten    --      6.5389                 4.2887                 6.4326

                     19                     20                     21
                      A                      A                      A
 Frequencies --    474.7122               476.5826               554.9438
 Red. masses --      2.4268                 2.0358                 2.2518
 Frc consts  --      0.3222                 0.2724                 0.4086
 IR Inten    --      1.4610                 4.6014                14.7882

                     22                     23                     24
                      A                      A                      A
 Frequencies --    724.0993               767.4769               803.9737
 Red. masses --      2.1313                 1.5673                 1.2040
 Frc consts  --      0.6584                 0.5439                 0.4585
 IR Inten    --     13.5969                 3.9726                 9.7817

                     25                     26                     27
                      A                      A                      A
 Frequencies --    809.6792               847.2055               870.1896
 Red. masses --      1.1430                 1.8296                 2.1961
 Frc consts  --      0.4415                 0.7737                 0.9798
 IR Inten    --      1.6537                22.8463                 5.3189

                     28                     29                     30
                      A                      A                      A
 Frequencies --    914.9270               932.4205               934.1121
 Red. masses --      1.9122                 1.6855                 2.0573
 Frc consts  --      0.9431                 0.8634                 1.0577
 IR Inten    --      7.5544               168.9327                17.1220

                     31                     32                     33
                      A                      A                      A
 Frequencies --    967.1601               988.2181              1017.1585
 Red. masses --      1.5133                 1.4876                 2.1867
 Frc consts  --      0.8340                 0.8560                 1.3330
 IR Inten    --     16.3714                 6.0491                18.5081

                     34                     35                     36
                      A                      A                      A
 Frequencies --   1054.7569              1066.5671              1080.5636
 Red. masses --      1.6004                 2.6833                 2.2653
 Frc consts  --      1.0490                 1.7984                 1.5584
 IR Inten    --     12.5437                 6.9667                39.1124

                     37                     38                     39
                      A                      A                      A
 Frequencies --   1089.2349              1105.1040              1118.0248
 Red. masses --      2.2148                 1.6975                 1.8563
 Frc consts  --      1.5482                 1.2215                 1.3671
 IR Inten    --     21.4600                38.7509                34.7061

                     40                     41                     42
                      A                      A                      A
 Frequencies --   1144.9504              1150.0147              1188.0261
 Red. masses --      1.7527                 2.0125                 1.7332
 Frc consts  --      1.3537                 1.5682                 1.4413
 IR Inten    --      6.7429                29.4366                34.2760

                     43                     44                     45
                      A                      A                      A
 Frequencies --   1228.9403              1247.8619              1266.5185
 Red. masses --      1.7138                 2.2555                 1.3596
 Frc consts  --      1.5250                 2.0693                 1.2849
 IR Inten    --     22.1113                40.3196                 1.6683

                     46                     47                     48
                      A                      A                      A
 Frequencies --   1300.4511              1319.0545              1330.8024
 Red. masses --      1.3468                 1.2181                 1.1542
 Frc consts  --      1.3419                 1.2487                 1.2043
 IR Inten    --      9.5011                 5.5847                10.2546

                     49                     50                     51
                      A                      A                      A
 Frequencies --   1336.1919              1368.9062              1382.9502
 Red. masses --      1.2041                 1.2677                 1.3326
 Frc consts  --      1.2666                 1.3997                 1.5017
 IR Inten    --     28.2545                 8.4857                 8.1505

                     52                     53                     54
                      A                      A                      A
 Frequencies --   1389.4096              1399.3760              1401.9945
 Red. masses --      1.2811                 1.3114                 1.2641
 Frc consts  --      1.4571                 1.5130                 1.4639
 IR Inten    --     52.7230                10.1639                 4.4531

                     55                     56                     57
                      A                      A                      A
 Frequencies --   1406.9217              1414.5328              1421.0119
 Red. masses --      1.2793                 1.2693                 1.3125
 Frc consts  --      1.4920                 1.4964                 1.5615
 IR Inten    --      2.4020                19.3105                20.3578

                     58                     59                     60
                      A                      A                      A
 Frequencies --   1430.5154              1431.8552              1480.1548
 Red. masses --      1.4319                 1.4095                 1.0868
 Frc consts  --      1.7264                 1.7026                 1.4028
 IR Inten    --      7.1687                17.2970                 2.2323

                     61                     62                     63
                      A                      A                      A
 Frequencies --   1484.5635              1493.0456              1496.2987
 Red. masses --      1.0727                 1.0581                 1.0607
 Frc consts  --      1.3929                 1.3898                 1.3992
 IR Inten    --      6.1192                 0.1656                 1.4702

                     64                     65                     66
                      A                      A                      A
 Frequencies --   1496.8891              1497.9605              1500.9787
 Red. masses --      1.0470                 1.0481                 1.0607
 Frc consts  --      1.3822                 1.3857                 1.4080
 IR Inten    --      3.6885                 2.5036                 4.9892

                     67                     68                     69
                      A                      A                      A
 Frequencies --   1506.4959              1508.2292              1518.5036
 Red. masses --      1.0647                 1.0506                 1.0848
 Frc consts  --      1.4237                 1.4081                 1.4738
 IR Inten    --     12.5364                 1.3696                 6.0053

                     70                     71                     72
                      A                      A                      A
 Frequencies --   1528.8659              1655.3593              2929.5551
 Red. masses --      1.0919                 1.0895                 1.0736
 Frc consts  --      1.5037                 1.7590                 5.4288
 IR Inten    --      2.1585                35.3203               117.5882

                     73                     74                     75
                      A                      A                      A
 Frequencies --   2948.0594              3005.4117              3014.0377
 Red. masses --      1.0724                 1.0717                 1.0758
 Frc consts  --      5.4914                 5.7035                 5.7582
 IR Inten    --    154.0685                 7.5039                63.6733

                     76                     77                     78
                      A                      A                      A
 Frequencies --   3024.5686              3030.9412              3036.0574
 Red. masses --      1.0618                 1.0612                 1.0415
 Frc consts  --      5.7232                 5.7439                 5.6565
 IR Inten    --     60.7104                66.5400                41.1911

                     79                     80                     81
                      A                      A                      A
 Frequencies --   3041.0731              3045.7462              3054.6371
 Red. masses --      1.0359                 1.0369                 1.0959
 Frc consts  --      5.6445                 5.6674                 6.0250
 IR Inten    --     30.6642                37.4255                 8.7426

                     82                     83                     84
                      A                      A                      A
 Frequencies --   3067.5542              3073.6658              3075.5268
 Red. masses --      1.1015                 1.0865                 1.0975
 Frc consts  --      6.1069                 6.0479                 6.1163
 IR Inten    --     56.7137                53.6687                59.9719

                     85                     86                     87
                      A                      A                      A
 Frequencies --   3079.7786              3105.9081              3110.1302
 Red. masses --      1.0928                 1.0966                 1.1010
 Frc consts  --      6.1072                 6.2329                 6.2749
 IR Inten    --    111.3438                60.9519                70.4014

                     88                     89                     90
                      A                      A                      A
 Frequencies --   3116.8831              3118.1911              3119.5267
 Red. masses --      1.1023                 1.1034                 1.1024
 Frc consts  --      6.3095                 6.3212                 6.3206
 IR Inten    --     33.8173                81.2770                77.7062

                     91                     92                     93
                      A                      A                      A
 Frequencies --   3129.0435              3456.7110              3536.1305
 Red. masses --      1.1022                 1.0506                 1.0907
 Frc consts  --      6.3582                 7.3960                 8.0356
 IR Inten    --     47.4289                 2.5983                 0.8082

 - Thermochemistry -
 -------------------
 Temperature   298.150 Kelvin.  Pressure   1.00000 Atm.
 Atom     1 has atomic number  6 and mass  12.00000

 Molecular mass:   158.17830 amu.
 Principal axes and moments of inertia in atomic units:
                           1         2         3
     Eigenvalues --  1173.673453790.016414353.47427
           X            0.99994  -0.00566   0.00983
           Y            0.00560   0.99997   0.00567
           Z           -0.00986  -0.00562   0.99994
 This molecule is an asymmetric top.
 Rotational symmetry number  1.
 Warning -- assumption of classical behavior for rotation
           may cause significant error
 Rotational temperatures (Kelvin)      0.07380     0.02285     0.01990
 Rotational constants (GHZ):           1.53769     0.47618     0.41455
 Zero-point vibrational energy     810232.4 (Joules/Mol)
                                  193.65020 (Kcal/Mol)
 Warning -- explicit consideration of  21 degrees of freedom as
           vibrations may cause significant error
 Vibrational temperatures:     37.76    54.12   103.84   127.51   139.16
          (Kelvin)            162.74   242.29   296.71   322.17   334.63
                              344.53   388.06   440.59   441.09   534.17
                              573.08   606.12   630.15   683.00   685.70
                              798.44  1041.82  1104.23  1156.74  1164.95
                             1218.94  1252.01  1316.38  1341.55  1343.98
                             1391.53  1421.83  1463.46  1517.56  1534.55
                             1554.69  1567.17  1590.00  1608.59  1647.33
                             1654.61  1709.30  1768.17  1795.40  1822.24
                             1871.06  1897.83  1914.73  1922.48  1969.55
                             1989.76  1999.05  2013.39  2017.16  2024.25
                             2035.20  2044.52  2058.19  2060.12  2129.61
                             2135.96  2148.16  2152.84  2153.69  2155.23
                             2159.57  2167.51  2170.01  2184.79  2199.70
                             2381.69  4214.98  4241.60  4324.12  4336.53
                             4351.68  4360.85  4368.21  4375.43  4382.15
                             4394.94  4413.53  4422.32  4425.00  4431.11
                             4468.71  4474.78  4484.50  4486.38  4488.30
                             4502.00  4973.44  5087.70

 Zero-point correction=                           0.308601 (Hartree/Particle)
 Thermal correction to Energy=                    0.323208
 Thermal correction to Enthalpy=                  0.324152
 Thermal correction to Gibbs Free Energy=         0.266368
 Sum of electronic and zero-point Energies=           -465.425629
 Sum of electronic and thermal Energies=              -465.411023
 Sum of electronic and thermal Enthalpies=            -465.410079
 Sum of electronic and thermal Free Energies=         -465.467863

                     E (Thermal)             CV                S
                      KCal/Mol        Cal/Mol-Kelvin    Cal/Mol-Kelvin
 Total                  202.816             53.324            121.616
 Electronic               0.000              0.000              0.000
 Translational            0.889              2.981             41.085
 Rotational               0.889              2.981             31.338
 Vibrational            201.039             47.362             49.194
 Vibration     1          0.593              1.985              6.095
 Vibration     2          0.594              1.982              5.381
 Vibration     3          0.598              1.967              4.093
 Vibration     4          0.601              1.957              3.690
 Vibration     5          0.603              1.952              3.519
 Vibration     6          0.607              1.939              3.215
 Vibration     7          0.625              1.881              2.453
 Vibration     8          0.641              1.831              2.077
 Vibration     9          0.649              1.805              1.927
 Vibration    10          0.653              1.791              1.859
 Vibration    11          0.657              1.780              1.807
 Vibration    12          0.674              1.729              1.598
 Vibration    13          0.697              1.662              1.383
 Vibration    14          0.697              1.661              1.381
 Vibration    15          0.743              1.531              1.075
 Vibration    16          0.765              1.474              0.969
 Vibration    17          0.784              1.424              0.888
 Vibration    18          0.798              1.387              0.833
 Vibration    19          0.831              1.306              0.724
 Vibration    20          0.833              1.302              0.719
 Vibration    21          0.910              1.129              0.534

 Optimization completed.
    -- Stationary point found.
 Normal termination of Gaussian 16 at Thu Jul 11 18:38:03 2024.
 Gaussian 16:  EM64L-G16RevA.03 25-Dec-2016

 ----------------------------------------------------------------------
 # TD(NStates=10, Root=1) B3LYP/6-31G** SCRF=(Solvent=water) volume pop
 =NPA density=current Geom=AllCheck Guess=Read
 ----------------------------------------------------------------------

 Structure from the checkpoint file:  "CAPCBAYULRXQAN-VIFPVBQESA-N_conf_2_2.chk"
 ----------------------------------
 CAPCBAYULRXQAN-VIFPVBQESA-N_conf_2
 ----------------------------------
 Charge =  0 Multiplicity = 1

                         Standard orientation:
 ---------------------------------------------------------------------
 Center     Atomic      Atomic             Coordinates (Angstroms)
 Number     Number       Type             X           Y           Z
 ---------------------------------------------------------------------
      1          6           0        3.777415   -0.682056    0.574903
      2          6           0        2.843421   -0.025277   -0.446002
      3          7           0        3.521889    1.165989   -0.996604
      4          6           0        1.445657    0.288640    0.131461
      5          6           0        0.610425   -0.940138    0.516911
      6          6           0       -0.766537   -0.648035    1.156663
      7          7           0       -1.819083   -0.013822    0.352930
      8          6           0       -2.146973   -0.704546   -0.895941
      9          6           0       -2.687662   -2.120650   -0.689357
     10          6           0       -1.712364    1.440959    0.187409
     11          6           0       -3.079041    2.133915    0.196871
     12          1           0        3.927911   -0.022676    1.439282
     13          1           0        4.755391   -0.877259    0.125390
     14          1           0        3.375898   -1.629554    0.944269
     15          1           0        2.710696   -0.721637   -1.287009
     16          1           0        2.899575    1.617550   -1.666424
     17          1           0        3.633832    1.847420   -0.244620
     18          1           0        0.903132    0.875214   -0.619727
     19          1           0        1.567552    0.945065    1.006466
     20          1           0        1.163476   -1.546467    1.245794
     21          1           0        0.481001   -1.581805   -0.364986
     22          1           0       -1.160945   -1.602934    1.526149
     23          1           0       -0.618992   -0.022003    2.045093
     24          1           0       -1.287027   -0.737903   -1.591525
     25          1           0       -2.916788   -0.113544   -1.402821
     26          1           0       -3.013629   -2.540221   -1.646470
     27          1           0       -1.933621   -2.796812   -0.275181
     28          1           0       -3.544519   -2.109721   -0.007966
     29          1           0       -1.115913    1.833843    1.017008
     30          1           0       -1.173399    1.717544   -0.736194
     31          1           0       -2.958525    3.217286    0.087010
     32          1           0       -3.602690    1.936609    1.137504
     33          1           0       -3.718101    1.789953   -0.622830
 ---------------------------------------------------------------------

 SCF Done:  E(RB3LYP) =  -465.734230740     A.U. after    1 cycles

 Excitation energies and oscillator strengths:

 Excited State   1:      Singlet-A      6.5027 eV  190.66 nm  f=0.0323  <S**2>=0.000
      45 -> 46         0.67431
      45 -> 47        -0.19250
 This state for optimization and/or second-order correction.
 Total Energy, E(TD-HF/TD-DFT) =  -465.495259868
 Copying the excited state density for this state as the 1-particle RhoCI density.

 Excited State   2:      Singlet-A      7.0558 eV  175.72 nm  f=0.0033  <S**2>=0.000
      44 -> 46        -0.12310
      45 -> 46         0.16618
      45 -> 47         0.64568
      45 -> 48         0.10485
      45 -> 49        -0.10322

 Excited State   3:      Singlet-A      7.0864 eV  174.96 nm  f=0.0194  <S**2>=0.000
      45 -> 48         0.68754

 Excited State   4:      Singlet-A      7.4192 eV  167.11 nm  f=0.0125  <S**2>=0.000
      44 -> 46        -0.39926
      44 -> 47        -0.26128
      45 -> 49         0.50148

 Excited State   5:      Singlet-A      7.4711 eV  165.95 nm  f=0.0257  <S**2>=0.000
      44 -> 46         0.39032
      44 -> 47         0.25333
      45 -> 47         0.14485
      45 -> 49         0.44001
      45 -> 50        -0.21711

 Excited State   6:      Singlet-A      7.7352 eV  160.28 nm  f=0.0497  <S**2>=0.000
      44 -> 46         0.15790
      45 -> 47         0.12443
      45 -> 49         0.14297
      45 -> 50         0.63949
      45 -> 51         0.12673

 Excited State   7:      Singlet-A      8.0150 eV  154.69 nm  f=0.0154  <S**2>=0.000
      44 -> 46        -0.34144
      44 -> 47         0.49668
      44 -> 50         0.16250
      45 -> 51         0.28881

 Excited State   8:      Singlet-A      8.1283 eV  152.53 nm  f=0.0281  <S**2>=0.000
      44 -> 46         0.13042
      44 -> 47        -0.24596
      45 -> 50        -0.15362
      45 -> 51         0.60931

 Excited State   9:      Singlet-A      8.3009 eV  149.36 nm  f=0.0974  <S**2>=0.000
      44 -> 48         0.20933
      44 -> 49         0.14155
      45 -> 52         0.50486
      45 -> 53        -0.22799
      45 -> 54         0.29102
      45 -> 55         0.11903

 Excited State  10:      Singlet-A      8.3378 eV  148.70 nm  f=0.0274  <S**2>=0.000
      44 -> 48         0.23214
      44 -> 49         0.19462
      45 -> 52         0.18304
      45 -> 53         0.54213
      45 -> 54        -0.19117

 The electronic state is 1-A.
 Alpha  occ. eigenvalues --  -14.31388 -14.30679 -10.20703 -10.20130 -10.20100
 Alpha  occ. eigenvalues --  -10.20001 -10.17350 -10.17169 -10.17079 -10.16884
 Alpha  occ. eigenvalues --  -10.16876  -0.90756  -0.87793  -0.77532  -0.75354
 Alpha  occ. eigenvalues --   -0.73269  -0.70674  -0.66756  -0.61987  -0.60480
 Alpha  occ. eigenvalues --   -0.56568  -0.54582  -0.48778  -0.47963  -0.46616
 Alpha  occ. eigenvalues --   -0.45445  -0.43616  -0.42687  -0.42643  -0.41127
 Alpha  occ. eigenvalues --   -0.38812  -0.38440  -0.37831  -0.37244  -0.36427
 Alpha  occ. eigenvalues --   -0.35534  -0.34982  -0.34575  -0.33530  -0.33230
 Alpha  occ. eigenvalues --   -0.32487  -0.31758  -0.31404  -0.23571  -0.19702
 Alpha virt. eigenvalues --    0.07684   0.09172   0.10102   0.11081   0.12089
 Alpha virt. eigenvalues --    0.12811   0.13893   0.14822   0.15189   0.15396
 Alpha virt. eigenvalues --    0.16256   0.16716   0.17502   0.17785   0.18358

 Mulliken charges:
               1
     1  C   -0.292290
     2  C    0.060414
     3  N   -0.618997
     4  C   -0.112031
     5  C   -0.115479
     6  C   -0.051371
     7  N   -0.226808
     8  C    0.026302
     9  C   -0.321319
    10  C   -0.016758
    11  C   -0.326271
    12  H    0.089516
    13  H    0.079980
    14  H    0.082657
    15  H    0.064966
    16  H    0.217400
    17  H    0.233215
    18  H   -0.017835
    19  H    0.031167
    20  H    0.057627
    21  H    0.028826
    22  H    0.108491
    23  H    0.082982
    24  H    0.045192
    25  H    0.057965
    26  H    0.096605
    27  H    0.083186
    28  H    0.110309
    29  H    0.097698
    30  H    0.099387
    31  H    0.113441
    32  H    0.126349
    33  H    0.105484
 Sum of Mulliken charges =  -0.00000

 Dipole moment (field-independent basis, Debye):
    X=             -5.4197    Y=              1.1626    Z=              1.8458  Tot=              5.8423
 Quadrupole moment (field-independent basis, Debye-Ang):
   XX=            -86.6762   YY=            -72.1307   ZZ=            -76.0175
   XY=             -1.0211   XZ=              3.2212   YZ=              0.3837

 Summary of Natural Population Analysis:

                                       Natural Population
                Natural  -----------------------------------------------
    Atom  No    Charge         Core      Valence    Rydberg      Total
 -----------------------------------------------------------------------
      C    1   -0.69720      1.99941     4.68851    0.00928     6.69720
      C    2   -0.05338      1.99924     4.03734    0.01679     6.05338
      N    3   -0.91706      1.99967     5.90189    0.01550     7.91706
      C    4   -0.49718      1.99927     4.48290    0.01501     6.49718
      C    5   -0.46918      1.99928     4.45786    0.01204     6.46918
      C    6   -0.30917      1.99929     4.29145    0.01842     6.30917
      N    7   -0.05444      1.99935     5.04606    0.00903     7.05444
      C    8   -0.31890      1.99930     4.30263    0.01697     6.31890
      C    9   -0.71407      1.99945     4.70425    0.01036     6.71407
      C   10   -0.31224      1.99930     4.29704    0.01589     6.31224
      C   11   -0.70383      1.99944     4.69470    0.00969     6.70383
      H   12    0.22178      0.00000     0.77379    0.00443     0.77822
      H   13    0.22166      0.00000     0.77218    0.00617     0.77834
      H   14    0.21786      0.00000     0.77474    0.00739     0.78214
      H   15    0.21460      0.00000     0.77422    0.01118     0.78540
      H   16    0.36298      0.00000     0.62562    0.01140     0.63702
      H   17    0.37296      0.00000     0.62133    0.00572     0.62704
      H   18    0.14822      0.00000     0.81438    0.03740     0.85178
      H   19    0.19633      0.00000     0.78465    0.01902     0.80367
      H   20    0.21148      0.00000     0.76857    0.01994     0.78852
      H   21    0.18723      0.00000     0.78098    0.03179     0.81277
      H   22    0.23945      0.00000     0.74418    0.01637     0.76055
      H   23    0.21660      0.00000     0.76184    0.02156     0.78340
      H   24    0.19548      0.00000     0.75835    0.04617     0.80452
      H   25    0.20003      0.00000     0.77391    0.02606     0.79997
      H   26    0.23179      0.00000     0.75942    0.00879     0.76821
      H   27    0.20930      0.00000     0.77522    0.01548     0.79070
      H   28    0.23523      0.00000     0.75882    0.00595     0.76477
      H   29    0.22947      0.00000     0.75327    0.01727     0.77053
      H   30    0.22649      0.00000     0.74516    0.02835     0.77351
      H   31    0.24017      0.00000     0.75335    0.00648     0.75983
      H   32    0.24317      0.00000     0.75407    0.00276     0.75683
      H   33    0.22435      0.00000     0.76593    0.00972     0.77565
 =======================================================================
   * Total *   -0.00000     21.99300    67.49862    0.50838    90.00000

 1\1\GINC-CN34\SP\RB3LYP TD-FC\6-31G(d,p)\C9H22N2\QDUEZ\11-Jul-2024\0\\
 # TD(NStates=10, Root=1) B3LYP/6-31G** SCRF=(Solvent=water) volume pop
 =NPA density=current Geom=AllCheck Guess=Read\\CAPCBAYULRXQAN-VIFPVBQE
 SA-N_conf_2\\0,1\C,0,-3.7873429496,-0.9756955965,-0.3373555528\C,0,-2.
 8210004749,-0.3764322994,0.6888098939\N,0,-3.548142625,0.6455753922,1.
 4694262566\C,0,-1.5223071869,0.1626517515,0.049641959\C,0,-0.619996414
 5,-0.9032866366,-0.5872961336\C,0,0.6539082596,-0.3789745226,-1.289360
 3679\N,0,1.718226485,0.2416177951,-0.4905125024\C,0,2.2306288611,-0.58

 Normal termination of Gaussian 16 at Thu Jul 11 19:17:48 2024.
