 Gaussian 16, Revision A.03,

 -------------------------------------------------------
 # opt=CalcFc B3LYP/6-31G** SCRF=(Solvent=water) scf=xqc
 -------------------------------------------------------

 ----------------------------------
 CAPCBAYULRXQAN-VIFPVBQESA-N_conf_4
 ----------------------------------
 Symbolic Z-matrix:
 Charge =  0 Multiplicity = 1

 SCF Done:  E(RB3LYP) =  -465.734886162     A.U. after   11 cycles
 SCF Done:  E(RB3LYP) =  -465.737430231     A.U. after    9 cycles
 SCF Done:  E(RB3LYP) =  -465.737630159     A.U. after    9 cycles
 SCF Done:  E(RB3LYP) =  -465.737635604     A.U. after    8 cycles
 SCF Done:  E(RB3LYP) =  -465.737636392     A.U. after    7 cycles
 SCF Done:  E(RB3LYP) =  -465.737636353     A.U. after    6 cycles
 Optimization completed.
    -- Stationary point found.
 Normal termination of Gaussian 16 at Thu Jul 11 17:59:19 2024.

 ----------------------------------------------------------------------
 # freq B3LYP/6-31G** SCRF=(Solvent=water) volume NMR pop=NPA density=c
 urrent Geom=AllCheck Guess=Read
 ----------------------------------------------------------------------

 Structure from the checkpoint file:  "CAPCBAYULRXQAN-VIFPVBQESA-N_conf_4_1.chk"
 ----------------------------------
 CAPCBAYULRXQAN-VIFPVBQESA-N_conf_4
 ----------------------------------
 Charge =  0 Multiplicity = 1

 SCF Done:  E(RB3LYP) =  -465.737636353     A.U. after    1 cycles

      1  C    Isotropic =   167.1792   Anisotropy =    38.2690

      2  C    Isotropic =   145.1131   Anisotropy =    27.4242

      3  N    Isotropic =   228.3492   Anisotropy =    43.0013

      4  C    Isotropic =   152.2773   Anisotropy =    27.1732

      5  C    Isotropic =   165.2581   Anisotropy =    24.7147

      6  C    Isotropic =   139.1404   Anisotropy =    53.6564

      7  N    Isotropic =   202.3061   Anisotropy =    17.7823

      8  C    Isotropic =   143.4467   Anisotropy =    49.2869

      9  C    Isotropic =   176.6377   Anisotropy =    23.5227

     10  C    Isotropic =   142.2025   Anisotropy =    49.9342

     11  C    Isotropic =   176.6287   Anisotropy =    23.8536

     12  H    Isotropic =    31.0312   Anisotropy =     7.3621

     13  H    Isotropic =    30.7793   Anisotropy =     9.0026

     14  H    Isotropic =    30.5440   Anisotropy =     9.8290

     15  H    Isotropic =    28.9062   Anisotropy =     5.1185

     16  H    Isotropic =    30.4469   Anisotropy =    13.2560

     17  H    Isotropic =    32.2511   Anisotropy =    12.6089

     18  H    Isotropic =    30.1668   Anisotropy =     5.5854

     19  H    Isotropic =    30.6952   Anisotropy =     6.9084

     20  H    Isotropic =    29.8527   Anisotropy =     3.6678

     21  H    Isotropic =    30.4669   Anisotropy =     7.1150

     22  H    Isotropic =    29.5222   Anisotropy =     7.2804

     23  H    Isotropic =    29.4480   Anisotropy =     5.8602

     24  H    Isotropic =    29.7047   Anisotropy =     7.3355

     25  H    Isotropic =    29.1348   Anisotropy =     6.5154

     26  H    Isotropic =    30.8540   Anisotropy =    10.9399

     27  H    Isotropic =    30.5221   Anisotropy =     6.6015

     28  H    Isotropic =    30.8707   Anisotropy =     8.3589

     29  H    Isotropic =    29.6322   Anisotropy =     6.8884

     30  H    Isotropic =    29.1467   Anisotropy =     5.4824

     31  H    Isotropic =    30.8589   Anisotropy =     8.1222

     32  H    Isotropic =    30.8600   Anisotropy =    10.7266

     33  H    Isotropic =    30.5244   Anisotropy =     7.5016

  Exact polarizability: 154.859   0.921 146.700   1.953  -1.136 132.878
 Approx polarizability: 154.192  -0.332 154.760   2.608  -1.079 146.270

                      1                      2                      3
                      A                      A                      A
 Frequencies --     28.3316                51.4751                68.6539
 Red. masses --      3.2336                 3.0541                 2.7015
 Frc consts  --      0.0015                 0.0048                 0.0075
 IR Inten    --      0.7576                 0.0261                 0.7075

                      4                      5                      6
                      A                      A                      A
 Frequencies --     86.9403                90.2362               115.1994
 Red. masses --      2.4519                 2.0467                 2.4778
 Frc consts  --      0.0109                 0.0098                 0.0194
 IR Inten    --      0.3551                 0.2610                 0.2302

                      7                      8                      9
                      A                      A                      A
 Frequencies --    185.2880               215.0102               232.1402
 Red. masses --      1.4450                 1.3181                 1.5873
 Frc consts  --      0.0292                 0.0359                 0.0504
 IR Inten    --      1.6957                 0.6433                 7.2937

                     10                     11                     12
                      A                      A                      A
 Frequencies --    238.4193               269.8538               280.8152
 Red. masses --      1.0906                 1.6543                 2.0554
 Frc consts  --      0.0365                 0.0710                 0.0955
 IR Inten    --      0.2626                 8.2416                 2.0520

                     13                     14                     15
                      A                      A                      A
 Frequencies --    285.0758               303.7595               329.5876
 Red. masses --      1.3110                 2.0983                 2.2613
 Frc consts  --      0.0628                 0.1141                 0.1447
 IR Inten    --     41.0355                 3.1383                 1.7228

                     16                     17                     18
                      A                      A                      A
 Frequencies --    401.3832               433.2244               450.1492
 Red. masses --      2.3828                 2.6384                 2.1534
 Frc consts  --      0.2262                 0.2918                 0.2571
 IR Inten    --      3.2943                12.2365                 9.8119

                     19                     20                     21
                      A                      A                      A
 Frequencies --    463.5691               484.8175               553.3353
 Red. masses --      2.5333                 2.5084                 2.5324
 Frc consts  --      0.3207                 0.3474                 0.4568
 IR Inten    --      6.3073                 5.3809                 4.4377

                     22                     23                     24
                      A                      A                      A
 Frequencies --    742.3847               777.5894               805.9538
 Red. masses --      1.5362                 1.7973                 1.1540
 Frc consts  --      0.4988                 0.6403                 0.4417
 IR Inten    --      2.8276                19.0946                 5.2060

                     25                     26                     27
                      A                      A                      A
 Frequencies --    814.3454               827.5480               862.1554
 Red. masses --      1.3954                 1.8204                 1.5505
 Frc consts  --      0.5452                 0.7345                 0.6790
 IR Inten    --      7.9412                13.5768                20.3602

                     28                     29                     30
                      A                      A                      A
 Frequencies --    918.6051               928.7320               935.2135
 Red. masses --      1.7991                 1.8790                 1.7182
 Frc consts  --      0.8945                 0.9549                 0.8854
 IR Inten    --    197.7157                 8.1710                22.4071

                     31                     32                     33
                      A                      A                      A
 Frequencies --    992.9541              1005.8557              1019.2986
 Red. masses --      1.7607                 2.0689                 1.4970
 Frc consts  --      1.0228                 1.2333                 0.9164
 IR Inten    --     19.4793                 1.5719                 8.2935

                     34                     35                     36
                      A                      A                      A
 Frequencies --   1036.3055              1069.7414              1084.4640
 Red. masses --      1.7330                 2.2809                 2.3548
 Frc consts  --      1.0965                 1.5379                 1.6317
 IR Inten    --      4.7548                27.0188                33.4909

                     37                     38                     39
                      A                      A                      A
 Frequencies --   1088.6447              1101.4628              1110.5276
 Red. masses --      2.3280                 1.7999                 1.7262
 Frc consts  --      1.6256                 1.2866                 1.2543
 IR Inten    --     20.4133                15.0921                14.8026

                     40                     41                     42
                      A                      A                      A
 Frequencies --   1137.3193              1172.0444              1186.6240
 Red. masses --      2.0038                 2.0236                 1.5626
 Frc consts  --      1.5271                 1.6378                 1.2964
 IR Inten    --     58.2123                15.5202                23.5795

                     43                     44                     45
                      A                      A                      A
 Frequencies --   1231.9568              1235.8428              1264.7246
 Red. masses --      1.7750                 2.0604                 1.5391
 Frc consts  --      1.5872                 1.8541                 1.4504
 IR Inten    --     11.0048                26.6081                20.3148

                     46                     47                     48
                      A                      A                      A
 Frequencies --   1299.6864              1323.7124              1327.9006
 Red. masses --      1.4740                 1.2404                 1.1576
 Frc consts  --      1.4670                 1.2805                 1.2027
 IR Inten    --      4.1952                24.4389                 9.0237

                     49                     50                     51
                      A                      A                      A
 Frequencies --   1331.9174              1348.5769              1364.1018
 Red. masses --      1.2029                 1.1476                 1.3058
 Frc consts  --      1.2573                 1.2297                 1.4316
 IR Inten    --     24.1840                12.9138                 1.6191

                     52                     53                     54
                      A                      A                      A
 Frequencies --   1395.2932              1400.1625              1406.7571
 Red. masses --      1.3648                 1.2699                 1.2582
 Frc consts  --      1.5655                 1.4668                 1.4670
 IR Inten    --      5.3402                 9.2205                 6.5517

                     55                     56                     57
                      A                      A                      A
 Frequencies --   1409.7772              1423.4581              1424.2926
 Red. masses --      1.2668                 1.3552                 1.3586
 Frc consts  --      1.4834                 1.6179                 1.6238
 IR Inten    --      1.0289                25.7267                 7.2800

                     58                     59                     60
                      A                      A                      A
 Frequencies --   1425.6851              1431.5095              1486.4882
 Red. masses --      1.3210                 1.4498                 1.0848
 Frc consts  --      1.5820                 1.7505                 1.4123
 IR Inten    --     20.5651                 9.5804                 2.1913

                     61                     62                     63
                      A                      A                      A
 Frequencies --   1491.2917              1492.9033              1495.9070
 Red. masses --      1.0557                 1.0609                 1.0511
 Frc consts  --      1.3833                 1.3931                 1.3859
 IR Inten    --      1.9033                 2.2810                 0.4323

                     64                     65                     66
                      A                      A                      A
 Frequencies --   1496.9858              1500.0700              1502.8143
 Red. masses --      1.0491                 1.0576                 1.0542
 Frc consts  --      1.3851                 1.4021                 1.4027
 IR Inten    --      5.7208                 1.4033                 1.0419

                     67                     68                     69
                      A                      A                      A
 Frequencies --   1503.2920              1518.4018              1518.6714
 Red. masses --      1.0538                 1.0811                 1.0869
 Frc consts  --      1.4031                 1.4686                 1.4770
 IR Inten    --      2.9840                 2.3609                 6.4937

                     70                     71                     72
                      A                      A                      A
 Frequencies --   1523.3475              1656.4545              2927.1961
 Red. masses --      1.0912                 1.0916                 1.0740
 Frc consts  --      1.4919                 1.7648                 5.4220
 IR Inten    --      8.3311                32.4729                28.7631

                     73                     74                     75
                      A                      A                      A
 Frequencies --   2930.3556              2938.7415              3009.6516
 Red. masses --      1.0735                 1.0726                 1.0601
 Frc consts  --      5.4312                 5.4575                 5.6577
 IR Inten    --    112.5585               258.2508                42.6487

                     76                     77                     78
                      A                      A                      A
 Frequencies --   3028.7283              3034.8766              3036.3004
 Red. masses --      1.0774                 1.0470                 1.0634
 Frc consts  --      5.8232                 5.6818                 5.7760
 IR Inten    --     22.6780                24.4871                48.8720

                     79                     80                     81
                      A                      A                      A
 Frequencies --   3044.3914              3044.8368              3053.1793
 Red. masses --      1.0359                 1.0358                 1.0976
 Frc consts  --      5.6566                 5.6581                 6.0281
 IR Inten    --     33.1415                28.8207               113.1681

                     82                     83                     84
                      A                      A                      A
 Frequencies --   3067.7821              3082.8990              3085.6559
 Red. masses --      1.0944                 1.0915                 1.0877
 Frc consts  --      6.0685                 6.1120                 6.1019
 IR Inten    --     16.7363                64.5616                16.7687

                     85                     86                     87
                      A                      A                      A
 Frequencies --   3087.4631              3102.5346              3113.7251
 Red. masses --      1.0903                 1.0986                 1.1012
 Frc consts  --      6.1235                 6.2305                 6.2902
 IR Inten    --     71.5105                73.5447                45.4711

                     88                     89                     90
                      A                      A                      A
 Frequencies --   3114.8284              3120.0557              3121.1286
 Red. masses --      1.1008                 1.1032                 1.1027
 Frc consts  --      6.2924                 6.3276                 6.3288
 IR Inten    --     85.1230                80.2155                68.0692

                     91                     92                     93
                      A                      A                      A
 Frequencies --   3123.1907              3465.4323              3553.2180
 Red. masses --      1.1031                 1.0514                 1.0898
 Frc consts  --      6.3399                 7.4392                 8.1065
 IR Inten    --     51.0091                 2.4249                 0.5586

 - Thermochemistry -
 -------------------
 Temperature   298.150 Kelvin.  Pressure   1.00000 Atm.
 Atom     1 has atomic number  6 and mass  12.00000

 Molecular mass:   158.17830 amu.
 Principal axes and moments of inertia in atomic units:
                           1         2         3
     Eigenvalues --  1070.736634048.861614722.66721
           X            0.99997   0.00668   0.00235
           Y           -0.00666   0.99994  -0.00827
           Z           -0.00240   0.00825   0.99996
 This molecule is an asymmetric top.
 Rotational symmetry number  1.
 Warning -- assumption of classical behavior for rotation
           may cause significant error
 Rotational temperatures (Kelvin)      0.08089     0.02139     0.01834
 Rotational constants (GHZ):           1.68551     0.44574     0.38214
 Zero-point vibrational energy     810489.1 (Joules/Mol)
                                  193.71153 (Kcal/Mol)
 Warning -- explicit consideration of  21 degrees of freedom as
           vibrations may cause significant error
 Vibrational temperatures:     40.76    74.06    98.78   125.09   129.83
          (Kelvin)            165.75   266.59   309.35   334.00   343.03
                              388.26   404.03   410.16   437.04   474.20
                              577.50   623.31   647.66   666.97   697.54
                              796.13  1068.13  1118.78  1159.59  1171.66
                             1190.66  1240.45  1321.67  1336.24  1345.56
                             1428.64  1447.20  1466.54  1491.01  1539.12
                             1560.30  1566.32  1584.76  1597.80  1636.35
                             1686.31  1707.29  1772.51  1778.10  1819.66
                             1869.96  1904.53  1910.55  1916.33  1940.30
                             1962.64  2007.52  2014.52  2024.01  2028.35
                             2048.04  2049.24  2051.24  2059.62  2138.72
                             2145.64  2147.95  2152.28  2153.83  2158.27
                             2162.21  2162.90  2184.64  2185.03  2191.76
                             2383.27  4211.58  4216.13  4228.19  4330.22
                             4357.66  4366.51  4368.56  4380.20  4380.84
                             4392.84  4413.85  4435.60  4439.57  4442.17
                             4463.86  4479.96  4481.54  4489.06  4490.61
                             4493.57  4985.98  5112.29

 Zero-point correction=                           0.308699 (Hartree/Particle)
 Thermal correction to Energy=                    0.323218
 Thermal correction to Enthalpy=                  0.324163
 Thermal correction to Gibbs Free Energy=         0.266808
 Sum of electronic and zero-point Energies=           -465.428937
 Sum of electronic and thermal Energies=              -465.414418
 Sum of electronic and thermal Enthalpies=            -465.413474
 Sum of electronic and thermal Free Energies=         -465.470828

                     E (Thermal)             CV                S
                      KCal/Mol        Cal/Mol-Kelvin    Cal/Mol-Kelvin
 Total                  202.823             53.228            120.713
 Electronic               0.000              0.000              0.000
 Translational            0.889              2.981             41.085
 Rotational               0.889              2.981             31.393
 Vibrational            201.045             47.266             48.234
 Vibration     1          0.593              1.984              5.943
 Vibration     2          0.596              1.977              4.760
 Vibration     3          0.598              1.969              4.192
 Vibration     4          0.601              1.958              3.728
 Vibration     5          0.602              1.956              3.655
 Vibration     6          0.608              1.937              3.179
 Vibration     7          0.631              1.860              2.274
 Vibration     8          0.645              1.818              2.001
 Vibration     9          0.653              1.792              1.862
 Vibration    10          0.656              1.782              1.815
 Vibration    11          0.674              1.729              1.597
 Vibration    12          0.680              1.709              1.529
 Vibration    13          0.683              1.701              1.503
 Vibration    14          0.695              1.667              1.396
 Vibration    15          0.712              1.616              1.262
 Vibration    16          0.767              1.467              0.958
 Vibration    17          0.794              1.398              0.848
 Vibration    18          0.809              1.361              0.795
 Vibration    19          0.821              1.331              0.756
 Vibration    20          0.841              1.284              0.697
 Vibration    21          0.909              1.132              0.537

 Optimization completed.
    -- Stationary point found.
 Normal termination of Gaussian 16 at Thu Jul 11 18:32:04 2024.
 Gaussian 16:  EM64L-G16RevA.03 25-Dec-2016

 ----------------------------------------------------------------------
 # TD(NStates=10, Root=1) B3LYP/6-31G** SCRF=(Solvent=water) volume pop
 =NPA density=current Geom=AllCheck Guess=Read
 ----------------------------------------------------------------------

 Structure from the checkpoint file:  "CAPCBAYULRXQAN-VIFPVBQESA-N_conf_4_2.chk"
 ----------------------------------
 CAPCBAYULRXQAN-VIFPVBQESA-N_conf_4
 ----------------------------------
 Charge =  0 Multiplicity = 1

                         Standard orientation:
 ---------------------------------------------------------------------
 Center     Atomic      Atomic             Coordinates (Angstroms)
 Number     Number       Type             X           Y           Z
 ---------------------------------------------------------------------
      1          6           0        4.240510    0.701126   -0.381028
      2          6           0        2.863225    0.031523   -0.344709
      3          7           0        3.049110   -1.432093   -0.335852
      4          6           0        2.024609    0.584039    0.831162
      5          6           0        0.594704    0.034725    0.961308
      6          6           0       -0.349654    0.476446   -0.164629
      7          7           0       -1.733883    0.016999    0.033764
      8          6           0       -2.698111    0.895367   -0.647882
      9          6           0       -2.976830    2.190210    0.116851
     10          6           0       -1.900914   -1.386797   -0.375954
     11          6           0       -3.076011   -2.079385    0.315996
     12          1           0        4.801801    0.480592    0.535747
     13          1           0        4.149010    1.788969   -0.461192
     14          1           0        4.826127    0.337582   -1.230345
     15          1           0        2.348154    0.269220   -1.285045
     16          1           0        2.142091   -1.893284   -0.373995
     17          1           0        3.451965   -1.705710    0.561241
     18          1           0        1.981447    1.679259    0.747990
     19          1           0        2.569736    0.370412    1.761728
     20          1           0        0.629281   -1.060300    1.025377
     21          1           0        0.164615    0.375853    1.910372
     22          1           0        0.034648    0.150773   -1.149299
     23          1           0       -0.353237    1.571083   -0.189491
     24          1           0       -2.366610    1.127731   -1.677956
     25          1           0       -3.639958    0.348175   -0.749551
     26          1           0       -3.716192    2.794918   -0.418828
     27          1           0       -2.077687    2.802713    0.237323
     28          1           0       -3.369103    1.968725    1.114270
     29          1           0       -2.005041   -1.471775   -1.474593
     30          1           0       -0.984902   -1.925766   -0.116432
     31          1           0       -2.948010   -2.055297    1.402646
     32          1           0       -3.139590   -3.125477   -0.001635
     33          1           0       -4.034299   -1.606262    0.079583
 ---------------------------------------------------------------------

 SCF Done:  E(RB3LYP) =  -465.737636353     A.U. after    1 cycles

 Excitation energies and oscillator strengths:

 Excited State   1:      Singlet-A      6.7641 eV  183.30 nm  f=0.0237  <S**2>=0.000
      45 -> 46         0.69432
      45 -> 47         0.10676
 This state for optimization and/or second-order correction.
 Total Energy, E(TD-HF/TD-DFT) =  -465.489059542
 Copying the excited state density for this state as the 1-particle RhoCI density.

 Excited State   2:      Singlet-A      7.1622 eV  173.11 nm  f=0.0338  <S**2>=0.000
      44 -> 46         0.69540

 Excited State   3:      Singlet-A      7.3247 eV  169.27 nm  f=0.0469  <S**2>=0.000
      45 -> 47         0.64943
      45 -> 48         0.21598
      45 -> 49         0.11070

 Excited State   4:      Singlet-A      7.4557 eV  166.29 nm  f=0.0362  <S**2>=0.000
      45 -> 47        -0.18104
      45 -> 48         0.65703
      45 -> 49        -0.15433

 Excited State   5:      Singlet-A      7.7824 eV  159.31 nm  f=0.0569  <S**2>=0.000
      45 -> 47        -0.11048
      45 -> 48         0.10834
      45 -> 49         0.64774
      45 -> 51         0.19607

 Excited State   6:      Singlet-A      7.9832 eV  155.31 nm  f=0.0979  <S**2>=0.000
      45 -> 50         0.67209
      45 -> 53         0.16646

 Excited State   7:      Singlet-A      8.1447 eV  152.23 nm  f=0.0193  <S**2>=0.000
      44 -> 47         0.55211
      44 -> 48        -0.27645
      44 -> 49        -0.31191

 Excited State   8:      Singlet-A      8.3872 eV  147.83 nm  f=0.0986  <S**2>=0.000
      44 -> 48        -0.10700
      45 -> 49        -0.17920
      45 -> 51         0.57419
      45 -> 52         0.29588

 Excited State   9:      Singlet-A      8.4198 eV  147.25 nm  f=0.0265  <S**2>=0.000
      44 -> 48         0.45647
      44 -> 49        -0.35005
      44 -> 50        -0.30160
      44 -> 51         0.20303
      45 -> 51         0.11376
      45 -> 52         0.10973

 Excited State  10:      Singlet-A      8.4634 eV  146.49 nm  f=0.1130  <S**2>=0.000
      45 -> 51        -0.30940
      45 -> 52         0.60735
      45 -> 58        -0.10900

 The electronic state is 1-A.
 Alpha  occ. eigenvalues --  -14.31698 -14.30809 -10.20747 -10.20170 -10.20150
 Alpha  occ. eigenvalues --  -10.19935 -10.17525 -10.17425 -10.17083 -10.17075
 Alpha  occ. eigenvalues --  -10.16887  -0.91117  -0.87882  -0.77656  -0.75393
 Alpha  occ. eigenvalues --   -0.73553  -0.71132  -0.65974  -0.61670  -0.60443
 Alpha  occ. eigenvalues --   -0.56886  -0.55365  -0.48680  -0.47227  -0.47045
 Alpha  occ. eigenvalues --   -0.45356  -0.43930  -0.43272  -0.42514  -0.41543
 Alpha  occ. eigenvalues --   -0.39470  -0.38460  -0.38221  -0.36755  -0.36155
 Alpha  occ. eigenvalues --   -0.35968  -0.34931  -0.34736  -0.33977  -0.33210
 Alpha  occ. eigenvalues --   -0.32042  -0.31558  -0.31099  -0.23553  -0.20861
 Alpha virt. eigenvalues --    0.07056   0.09552   0.10078   0.10980   0.11779
 Alpha virt. eigenvalues --    0.13138   0.13936   0.14446   0.15137   0.15823
 Alpha virt. eigenvalues --    0.16599   0.16918   0.17438   0.17600   0.18218

 Mulliken charges:
               1
     1  C   -0.299411
     2  C    0.073972
     3  N   -0.521965
     4  C   -0.152259
     5  C   -0.118932
     6  C   -0.026772
     7  N   -0.219081
     8  C   -0.085557
     9  C   -0.340173
    10  C   -0.022754
    11  C   -0.347221
    12  H    0.088602
    13  H    0.073925
    14  H    0.087609
    15  H    0.037380
    16  H   -0.059098
    17  H    0.142553
    18  H    0.062148
    19  H    0.067209
    20  H   -0.030293
    21  H    0.056429
    22  H    0.087241
    23  H    0.108394
    24  H    0.201316
    25  H    0.154830
    26  H    0.143303
    27  H    0.131655
    28  H    0.141992
    29  H    0.177316
    30  H   -0.013049
    31  H    0.134615
    32  H    0.136973
    33  H    0.129103
 Sum of Mulliken charges =  -0.00000

 Dipole moment (field-independent basis, Debye):
    X=            -12.3322    Y=              4.7072    Z=             -0.4647  Tot=             13.2082
 Quadrupole moment (field-independent basis, Debye-Ang):
   XX=            -74.9949   YY=            -77.1517   ZZ=            -73.2553
   XY=              6.8887   XZ=              9.0524   YZ=             -3.2765

 Summary of Natural Population Analysis:

                                       Natural Population
                Natural  -----------------------------------------------
    Atom  No    Charge         Core      Valence    Rydberg      Total
 -----------------------------------------------------------------------
      C    1   -0.68905      1.99941     4.68039    0.00925     6.68905
      C    2   -0.07149      1.99925     4.05336    0.01888     6.07149
      N    3   -0.96334      1.99966     5.94202    0.02166     7.96334
      C    4   -0.47794      1.99929     4.46668    0.01197     6.47794
      C    5   -0.49500      1.99930     4.47791    0.01779     6.49500
      C    6   -0.31176      1.99925     4.29470    0.01781     6.31176
      N    7   -0.02772      1.99929     5.01941    0.00903     7.02772
      C    8   -0.31243      1.99930     4.29883    0.01430     6.31243
      C    9   -0.70785      1.99945     4.69966    0.00874     6.70785
      C   10   -0.32426      1.99928     4.30654    0.01844     6.32426
      C   11   -0.70942      1.99945     4.70035    0.00962     6.70942
      H   12    0.22142      0.00000     0.77530    0.00327     0.77858
      H   13    0.21177      0.00000     0.78300    0.00523     0.78823
      H   14    0.23156      0.00000     0.76556    0.00289     0.76844
      H   15    0.19440      0.00000     0.79057    0.01503     0.80560
      H   16    0.16580      0.00000     0.76016    0.07404     0.83420
      H   17    0.32304      0.00000     0.65808    0.01887     0.67696
      H   18    0.21691      0.00000     0.77562    0.00747     0.78309
      H   19    0.22584      0.00000     0.76673    0.00744     0.77416
      H   20    0.13184      0.00000     0.82315    0.04501     0.86816
      H   21    0.21453      0.00000     0.77395    0.01152     0.78547
      H   22    0.22183      0.00000     0.74220    0.03597     0.77817
      H   23    0.23646      0.00000     0.75239    0.01115     0.76354
      H   24    0.29973      0.00000     0.69954    0.00073     0.70027
      H   25    0.26314      0.00000     0.73359    0.00326     0.73686
      H   26    0.26344      0.00000     0.73553    0.00104     0.73656
      H   27    0.24011      0.00000     0.75631    0.00358     0.75989
      H   28    0.25160      0.00000     0.74727    0.00113     0.74840
      H   29    0.28842      0.00000     0.70714    0.00443     0.71158
      H   30    0.14327      0.00000     0.79879    0.05794     0.85673
      H   31    0.24655      0.00000     0.75120    0.00225     0.75345
      H   32    0.25889      0.00000     0.73935    0.00177     0.74111
      H   33    0.23970      0.00000     0.75897    0.00133     0.76030
 =======================================================================
   * Total *   -0.00000     21.99293    67.53426    0.47281    90.00000

 1\1\GINC-CN34\SP\RB3LYP TD-FC\6-31G(d,p)\C9H22N2\QDUEZ\11-Jul-2024\0\\
 # TD(NStates=10, Root=1) B3LYP/6-31G** SCRF=(Solvent=water) volume pop
 =NPA density=current Geom=AllCheck Guess=Read\\CAPCBAYULRXQAN-VIFPVBQE
 SA-N_conf_4\\0,1\C,0,3.8949296066,1.8964852273,-0.4393184409\C,0,2.744
 2923279,0.8880346641,-0.5145761028\N,0,3.2861274426,-0.416745042,-0.93
 974364\C,0,1.9622867677,0.8599495165,0.8191789151\C,0,0.7441018334,-0.
 0763225762,0.8714736213\C,0,-0.4237546154,0.3668092412,-0.0198226444\N
 ,0,-1.611118472,-0.4916287543,0.1208576972\C,0,-2.8459366003,0.2335225

 Normal termination of Gaussian 16 at Thu Jul 11 19:11:15 2024.
