 Gaussian 16, Revision A.03,

 -------------------------------------------------------
 # opt=CalcFc B3LYP/6-31G** SCRF=(Solvent=water) scf=xqc
 -------------------------------------------------------

 ----------------------------------
 CAPCBAYULRXQAN-VIFPVBQESA-N_conf_0
 ----------------------------------
 Symbolic Z-matrix:
 Charge =  0 Multiplicity = 1

 SCF Done:  E(RB3LYP) =  -465.731805728     A.U. after   11 cycles
 SCF Done:  E(RB3LYP) =  -465.735003739     A.U. after    9 cycles
 SCF Done:  E(RB3LYP) =  -465.735520865     A.U. after    9 cycles
 SCF Done:  E(RB3LYP) =  -465.735640953     A.U. after    9 cycles
 SCF Done:  E(RB3LYP) =  -465.735679539     A.U. after    9 cycles
 SCF Done:  E(RB3LYP) =  -465.735687331     A.U. after    7 cycles
 SCF Done:  E(RB3LYP) =  -465.735688189     A.U. after    7 cycles
 SCF Done:  E(RB3LYP) =  -465.735688386     A.U. after    6 cycles
 SCF Done:  E(RB3LYP) =  -465.735688409     A.U. after    6 cycles
 SCF Done:  E(RB3LYP) =  -465.735688408     A.U. after    5 cycles
 Optimization completed.
    -- Stationary point found.
 Normal termination of Gaussian 16 at Thu Jul 11 18:19:44 2024.

 ----------------------------------------------------------------------
 # freq B3LYP/6-31G** SCRF=(Solvent=water) volume NMR pop=NPA density=c
 urrent Geom=AllCheck Guess=Read
 ----------------------------------------------------------------------

 Structure from the checkpoint file:  "CAPCBAYULRXQAN-VIFPVBQESA-N_conf_0_1.chk"
 ----------------------------------
 CAPCBAYULRXQAN-VIFPVBQESA-N_conf_0
 ----------------------------------
 Charge =  0 Multiplicity = 1

 SCF Done:  E(RB3LYP) =  -465.735688408     A.U. after    1 cycles

      1  C    Isotropic =   163.0186   Anisotropy =    43.3722

      2  C    Isotropic =   138.4030   Anisotropy =    15.5467

      3  N    Isotropic =   214.3554   Anisotropy =    32.6607

      4  C    Isotropic =   156.1854   Anisotropy =    27.1240

      5  C    Isotropic =   160.2619   Anisotropy =    27.6390

      6  C    Isotropic =   134.6400   Anisotropy =    59.0084

      7  N    Isotropic =   210.7121   Anisotropy =    53.1125

      8  C    Isotropic =   144.5953   Anisotropy =    46.8440

      9  C    Isotropic =   185.7255   Anisotropy =    10.0956

     10  C    Isotropic =   149.3449   Anisotropy =    41.3097

     11  C    Isotropic =   177.4065   Anisotropy =    22.9463

     12  H    Isotropic =    30.6188   Anisotropy =     9.5032

     13  H    Isotropic =    30.8316   Anisotropy =     9.0096

     14  H    Isotropic =    30.9679   Anisotropy =     6.3060

     15  H    Isotropic =    28.8646   Anisotropy =     4.9961

     16  H    Isotropic =    31.7077   Anisotropy =     9.1546

     17  H    Isotropic =    31.0215   Anisotropy =    13.9917

     18  H    Isotropic =    30.1887   Anisotropy =     7.2993

     19  H    Isotropic =    30.7153   Anisotropy =     4.2999

     20  H    Isotropic =    30.0142   Anisotropy =     6.7144

     21  H    Isotropic =    30.3708   Anisotropy =     4.7567

     22  H    Isotropic =    27.9758   Anisotropy =    11.2886

     23  H    Isotropic =    29.4953   Anisotropy =     5.9835

     24  H    Isotropic =    29.1106   Anisotropy =     7.3653

     25  H    Isotropic =    28.6141   Anisotropy =     7.1514

     26  H    Isotropic =    30.4004   Anisotropy =     7.7404

     27  H    Isotropic =    31.4346   Anisotropy =    10.7737

     28  H    Isotropic =    30.8271   Anisotropy =     7.3822

     29  H    Isotropic =    29.0877   Anisotropy =     6.2892

     30  H    Isotropic =    29.3491   Anisotropy =     5.3586

     31  H    Isotropic =    30.8468   Anisotropy =    10.5092

     32  H    Isotropic =    31.0021   Anisotropy =     8.6965

     33  H    Isotropic =    30.4484   Anisotropy =     7.5451

  Exact polarizability: 156.994  -0.019 144.556  -1.056   1.695 132.094
 Approx polarizability: 153.679   0.298 152.624  -1.899   2.253 147.529

                      1                      2                      3
                      A                      A                      A
 Frequencies --     26.0937                46.3238                51.0676
 Red. masses --      2.9984                 2.3520                 2.8404
 Frc consts  --      0.0012                 0.0030                 0.0044
 IR Inten    --      0.1109                 0.2753                 0.7991

                      4                      5                      6
                      A                      A                      A
 Frequencies --     66.1635                95.5514               129.5746
 Red. masses --      3.1906                 2.1882                 2.5722
 Frc consts  --      0.0082                 0.0118                 0.0254
 IR Inten    --      0.5884                 0.3315                 0.9080

                      7                      8                      9
                      A                      A                      A
 Frequencies --    175.7633               224.1651               232.2697
 Red. masses --      1.4881                 1.3706                 1.5444
 Frc consts  --      0.0271                 0.0406                 0.0491
 IR Inten    --      0.7681                 0.8473                 1.6546

                     10                     11                     12
                      A                      A                      A
 Frequencies --    249.0377               263.7173               275.0045
 Red. masses --      1.3741                 1.7085                 1.5469
 Frc consts  --      0.0502                 0.0700                 0.0689
 IR Inten    --      1.4861                 4.1082                38.1196

                     13                     14                     15
                      A                      A                      A
 Frequencies --    291.5068               296.5994               302.1018
 Red. masses --      1.3827                 2.0543                 2.0282
 Frc consts  --      0.0692                 0.1065                 0.1091
 IR Inten    --     26.3493                 8.0325                 2.1329

                     16                     17                     18
                      A                      A                      A
 Frequencies --    399.0039               413.2413               443.0022
 Red. masses --      2.4057                 2.1627                 1.9326
 Frc consts  --      0.2257                 0.2176                 0.2235
 IR Inten    --      9.8170                 3.7285                 7.3460

                     19                     20                     21
                      A                      A                      A
 Frequencies --    482.3908               513.6887               558.9476
 Red. masses --      2.5386                 2.6687                 2.4794
 Frc consts  --      0.3481                 0.4149                 0.4564
 IR Inten    --      7.5430                11.0431                 3.0820

                     22                     23                     24
                      A                      A                      A
 Frequencies --    750.3819               770.7356               786.0433
 Red. masses --      1.5123                 2.1657                 1.1842
 Frc consts  --      0.5017                 0.7580                 0.4311
 IR Inten    --      6.7254                11.5273                 7.8595

                     25                     26                     27
                      A                      A                      A
 Frequencies --    811.1620               828.7214               868.9007
 Red. masses --      1.3508                 1.6723                 1.7428
 Frc consts  --      0.5236                 0.6767                 0.7752
 IR Inten    --     13.1390                 9.7760                 1.6479

                     28                     29                     30
                      A                      A                      A
 Frequencies --    905.0443               921.4397               948.9511
 Red. masses --      2.0448                 1.7995                 1.3624
 Frc consts  --      0.9868                 0.9002                 0.7229
 IR Inten    --     31.3485               110.3196                49.5781

                     31                     32                     33
                      A                      A                      A
 Frequencies --    987.9743               997.9422              1022.4774
 Red. masses --      2.1562                 1.6615                 1.9391
 Frc consts  --      1.2400                 0.9749                 1.1944
 IR Inten    --     14.3912                 2.9955                 1.7382

                     34                     35                     36
                      A                      A                      A
 Frequencies --   1054.1259              1056.0366              1068.8001
 Red. masses --      2.6700                 1.7748                 2.1777
 Frc consts  --      1.7480                 1.1662                 1.4657
 IR Inten    --      3.6601                26.3582                17.7960

                     37                     38                     39
                      A                      A                      A
 Frequencies --   1080.8220              1097.5130              1116.5360
 Red. masses --      2.2976                 1.8327                 2.0725
 Frc consts  --      1.5813                 1.3007                 1.5223
 IR Inten    --     65.3631                 4.9908                78.5290

                     40                     41                     42
                      A                      A                      A
 Frequencies --   1136.5250              1167.7691              1182.8595
 Red. masses --      1.5793                 1.5426                 1.7371
 Frc consts  --      1.2019                 1.2394                 1.4320
 IR Inten    --      8.8138                13.9260                15.3047

                     43                     44                     45
                      A                      A                      A
 Frequencies --   1211.9626              1234.3093              1277.9968
 Red. masses --      1.8474                 2.0832                 1.5472
 Frc consts  --      1.5988                 1.8700                 1.4889
 IR Inten    --     13.9312                26.2106                16.3413

                     46                     47                     48
                      A                      A                      A
 Frequencies --   1311.7342              1322.6744              1334.2362
 Red. masses --      1.2973                 1.1925                 1.2039
 Frc consts  --      1.3152                 1.2292                 1.2628
 IR Inten    --      4.8929                 9.7084                16.0803

                     49                     50                     51
                      A                      A                      A
 Frequencies --   1343.8529              1354.4154              1373.4431
 Red. masses --      1.1966                 1.3039                 1.2648
 Frc consts  --      1.2732                 1.4093                 1.4057
 IR Inten    --     27.5005                 8.5692                12.8631

                     52                     53                     54
                      A                      A                      A
 Frequencies --   1386.6355              1391.7497              1405.6890
 Red. masses --      1.2672                 1.4036                 1.2544
 Frc consts  --      1.4355                 1.6018                 1.4604
 IR Inten    --     17.8487                 3.9192                 4.0494

                     55                     56                     57
                      A                      A                      A
 Frequencies --   1410.6513              1413.0185              1418.2329
 Red. masses --      1.2660                 1.2905                 1.3531
 Frc consts  --      1.4844                 1.5181                 1.6035
 IR Inten    --     27.4055                 5.3521                11.5267

                     58                     59                     60
                      A                      A                      A
 Frequencies --   1421.5893              1428.3543              1484.5490
 Red. masses --      1.3537                 1.4048                 1.0677
 Frc consts  --      1.6118                 1.6887                 1.3864
 IR Inten    --      3.9000                18.7773                 0.9688

                     61                     62                     63
                      A                      A                      A
 Frequencies --   1486.3425              1492.7564              1493.6014
 Red. masses --      1.0767                 1.0756                 1.0570
 Frc consts  --      1.4015                 1.4122                 1.3893
 IR Inten    --      3.8783                 1.8657                 2.8840

                     64                     65                     66
                      A                      A                      A
 Frequencies --   1499.7918              1500.4892              1503.9016
 Red. masses --      1.0446                 1.0573                 1.0645
 Frc consts  --      1.3844                 1.4026                 1.4186
 IR Inten    --      3.1918                 2.3458                 6.1566

                     67                     68                     69
                      A                      A                      A
 Frequencies --   1505.1345              1512.5871              1522.2551
 Red. masses --      1.0427                 1.0714                 1.0863
 Frc consts  --      1.3918                 1.4443                 1.4832
 IR Inten    --      1.0262                 3.2997                 8.5187

                     70                     71                     72
                      A                      A                      A
 Frequencies --   1529.1679              1653.1789              2926.1803
 Red. masses --      1.0903                 1.0898                 1.0729
 Frc consts  --      1.5021                 1.7548                 5.4129
 IR Inten    --      1.3061                37.4597                77.9930

                     73                     74                     75
                      A                      A                      A
 Frequencies --   2935.5399              3004.6878              3017.0752
 Red. masses --      1.0731                 1.0697                 1.0801
 Frc consts  --      5.4486                 5.6901                 5.7928
 IR Inten    --    176.7092                13.8547                71.1055

                     76                     77                     78
                      A                      A                      A
 Frequencies --   3026.4949              3027.8288              3037.6517
 Red. masses --      1.0387                 1.0590                 1.0594
 Frc consts  --      5.6058                 5.7201                 5.7596
 IR Inten    --     71.4961                26.1130                55.3025

                     79                     80                     81
                      A                      A                      A
 Frequencies --   3043.3020              3045.9692              3062.7023
 Red. masses --      1.0359                 1.0387                 1.1004
 Frc consts  --      5.6529                 5.6778                 6.0816
 IR Inten    --     34.5559                37.5078                87.9876

                     82                     83                     84
                      A                      A                      A
 Frequencies --   3065.0448              3076.0401              3077.3559
 Red. masses --      1.0956                 1.0969                 1.0912
 Frc consts  --      6.0644                 6.1150                 6.0887
 IR Inten    --     43.9850                39.9399                37.1515

                     85                     86                     87
                      A                      A                      A
 Frequencies --   3096.8396              3101.9215              3110.1096
 Red. masses --      1.1020                 1.1025                 1.1015
 Frc consts  --      6.2271                 6.2502                 6.2775
 IR Inten    --     80.7999                62.8439                60.5742

                     88                     89                     90
                      A                      A                      A
 Frequencies --   3113.3739              3115.4150              3118.0139
 Red. masses --      1.0910                 1.1011                 1.1022
 Frc consts  --      6.2309                 6.2967                 6.3133
 IR Inten    --      8.5157                80.2675                57.9772

                     91                     92                     93
                      A                      A                      A
 Frequencies --   3120.3206              3460.2931              3540.3141
 Red. masses --      1.1027                 1.0502                 1.0914
 Frc consts  --      6.3256                 7.4090                 8.0593
 IR Inten    --     89.8667                 1.9167                 0.5377

 - Thermochemistry -
 -------------------
 Temperature   298.150 Kelvin.  Pressure   1.00000 Atm.
 Atom     1 has atomic number  6 and mass  12.00000

 Molecular mass:   158.17830 amu.
 Principal axes and moments of inertia in atomic units:
                           1         2         3
     Eigenvalues --   919.804384196.336994828.77965
           X            1.00000   0.00193   0.00046
           Y           -0.00193   0.99998  -0.00672
           Z           -0.00048   0.00672   0.99998
 This molecule is an asymmetric top.
 Rotational symmetry number  1.
 Warning -- assumption of classical behavior for rotation
           may cause significant error
 Rotational temperatures (Kelvin)      0.09417     0.02064     0.01794
 Rotational constants (GHZ):           1.96209     0.43008     0.37375
 Zero-point vibrational energy     810127.6 (Joules/Mol)
                                  193.62513 (Kcal/Mol)
 Warning -- explicit consideration of  21 degrees of freedom as
           vibrations may cause significant error
 Vibrational temperatures:     37.54    66.65    73.47    95.19   137.48
          (Kelvin)            186.43   252.88   322.52   334.18   358.31
                              379.43   395.67   419.41   426.74   434.66
                              574.08   594.56   637.38   694.05   739.08
                              804.20  1079.63  1108.92  1130.94  1167.08
                             1192.35  1250.15  1302.16  1325.75  1365.33
                             1421.47  1435.82  1471.12  1516.65  1519.40
                             1537.77  1555.06  1579.08  1606.45  1635.21
                             1680.16  1701.87  1743.74  1775.90  1838.75
                             1887.29  1903.03  1919.67  1933.50  1948.70
                             1976.08  1995.06  2002.42  2022.47  2029.61
                             2033.02  2040.52  2045.35  2055.08  2135.93
                             2138.52  2147.74  2148.96  2157.87  2158.87
                             2163.78  2165.55  2176.28  2190.19  2200.13
                             2378.56  4210.12  4223.59  4323.08  4340.90
                             4354.45  4356.37  4370.50  4378.63  4382.47
                             4406.55  4409.92  4425.74  4427.63  4455.66
                             4462.97  4474.75  4479.45  4482.39  4486.13
                             4489.45  4978.59  5093.72

 Zero-point correction=                           0.308561 (Hartree/Particle)
 Thermal correction to Energy=                    0.323170
 Thermal correction to Enthalpy=                  0.324114
 Thermal correction to Gibbs Free Energy=         0.266183
 Sum of electronic and zero-point Energies=           -465.427127
 Sum of electronic and thermal Energies=              -465.412518
 Sum of electronic and thermal Enthalpies=            -465.411574
 Sum of electronic and thermal Free Energies=         -465.469506

                     E (Thermal)             CV                S
                      KCal/Mol        Cal/Mol-Kelvin    Cal/Mol-Kelvin
 Total                  202.792             53.305            121.927
 Electronic               0.000              0.000              0.000
 Translational            0.889              2.981             41.085
 Rotational               0.889              2.981             31.300
 Vibrational            201.015             47.343             49.542
 Vibration     1          0.593              1.985              6.106
 Vibration     2          0.595              1.979              4.968
 Vibration     3          0.595              1.977              4.776
 Vibration     4          0.598              1.970              4.264
 Vibration     5          0.603              1.952              3.543
 Vibration     6          0.612              1.924              2.952
 Vibration     7          0.628              1.872              2.373
 Vibration     8          0.649              1.804              1.925
 Vibration     9          0.653              1.792              1.861
 Vibration    10          0.662              1.764              1.737
 Vibration    11          0.670              1.739              1.637
 Vibration    12          0.677              1.720              1.565
 Vibration    13          0.687              1.690              1.465
 Vibration    14          0.690              1.680              1.436
 Vibration    15          0.694              1.670              1.405
 Vibration    16          0.765              1.472              0.966
 Vibration    17          0.777              1.441              0.915
 Vibration    18          0.803              1.376              0.817
 Vibration    19          0.839              1.289              0.704
 Vibration    20          0.869              1.220              0.625
 Vibration    21          0.915              1.120              0.526

 Optimization completed.
    -- Stationary point found.
 Normal termination of Gaussian 16 at Thu Jul 11 18:55:47 2024.
 Gaussian 16:  EM64L-G16RevA.03 25-Dec-2016

 ----------------------------------------------------------------------
 # TD(NStates=10, Root=1) B3LYP/6-31G** SCRF=(Solvent=water) volume pop
 =NPA density=current Geom=AllCheck Guess=Read
 ----------------------------------------------------------------------

 Structure from the checkpoint file:  "CAPCBAYULRXQAN-VIFPVBQESA-N_conf_0_2.chk"
 ----------------------------------
 CAPCBAYULRXQAN-VIFPVBQESA-N_conf_0
 ----------------------------------
 Charge =  0 Multiplicity = 1

                         Standard orientation:
 ---------------------------------------------------------------------
 Center     Atomic      Atomic             Coordinates (Angstroms)
 Number     Number       Type             X           Y           Z
 ---------------------------------------------------------------------
      1          6           0       -4.495917   -0.232723   -0.196572
      2          6           0       -3.070394   -0.042751    0.348086
      3          7           0       -2.609123    1.358141    0.284399
      4          6           0       -2.082438   -0.978656   -0.370211
      5          6           0       -0.661423   -1.064013    0.218971
      6          6           0        0.281273    0.073902   -0.202002
      7          7           0        1.640279   -0.093010    0.333742
      8          6           0        2.301051    1.186276    0.626954
      9          6           0        2.606867    2.109332   -0.565928
     10          6           0        2.448158   -1.018258   -0.469318
     11          6           0        3.695016   -1.531539    0.253285
     12          1           0       -4.844646   -1.263887   -0.068752
     13          1           0       -5.200942    0.426686    0.321714
     14          1           0       -4.536405    0.006876   -1.266389
     15          1           0       -3.074502   -0.317403    1.412856
     16          1           0       -2.613706    1.657213   -0.691318
     17          1           0       -3.296569    1.951631    0.747594
     18          1           0       -2.524536   -1.982235   -0.359316
     19          1           0       -2.027798   -0.690230   -1.431336
     20          1           0       -0.223277   -2.022568   -0.085867
     21          1           0       -0.713850   -1.089936    1.315126
     22          1           0       -0.131549    1.013193    0.173046
     23          1           0        0.280718    0.152336   -1.305898
     24          1           0        1.660190    1.724059    1.336140
     25          1           0        3.233393    0.975730    1.162509
     26          1           0        3.296217    1.645167   -1.278320
     27          1           0        3.073476    3.034783   -0.211442
     28          1           0        1.695368    2.382111   -1.107652
     29          1           0        2.740527   -0.579544   -1.441793
     30          1           0        1.814150   -1.877656   -0.709824
     31          1           0        4.190452   -2.297263   -0.352502
     32          1           0        3.425858   -1.975771    1.217021
     33          1           0        4.426178   -0.738622    0.437828
 ---------------------------------------------------------------------

 SCF Done:  E(RB3LYP) =  -465.735688407     A.U. after    2 cycles

 Excitation energies and oscillator strengths:

 Excited State   1:      Singlet-A      6.7408 eV  183.93 nm  f=0.0278  <S**2>=0.000
      45 -> 46         0.33793
      45 -> 47         0.61794
 This state for optimization and/or second-order correction.
 Total Energy, E(TD-HF/TD-DFT) =  -465.487967622
 Copying the excited state density for this state as the 1-particle RhoCI density.

 Excited State   2:      Singlet-A      7.0215 eV  176.58 nm  f=0.0080  <S**2>=0.000
      45 -> 46         0.60674
      45 -> 47        -0.33790

 Excited State   3:      Singlet-A      7.3176 eV  169.43 nm  f=0.0416  <S**2>=0.000
      44 -> 46         0.68059
      44 -> 47        -0.13997

 Excited State   4:      Singlet-A      7.5422 eV  164.39 nm  f=0.0091  <S**2>=0.000
      45 -> 46        -0.11669
      45 -> 48         0.56137
      45 -> 49        -0.35184
      45 -> 50        -0.17139

 Excited State   5:      Singlet-A      7.6314 eV  162.46 nm  f=0.0286  <S**2>=0.000
      45 -> 48         0.37973
      45 -> 49         0.41349
      45 -> 50         0.41770

 Excited State   6:      Singlet-A      7.7943 eV  159.07 nm  f=0.0356  <S**2>=0.000
      45 -> 49        -0.41011
      45 -> 50         0.48696
      45 -> 51         0.26904

 Excited State   7:      Singlet-A      8.1355 eV  152.40 nm  f=0.0020  <S**2>=0.000
      44 -> 46         0.13935
      44 -> 47         0.67215
      44 -> 49        -0.15475

 Excited State   8:      Singlet-A      8.1951 eV  151.29 nm  f=0.0064  <S**2>=0.000
      45 -> 48         0.10338
      45 -> 49         0.14168
      45 -> 50        -0.21454
      45 -> 51         0.64000

 Excited State   9:      Singlet-A      8.3854 eV  147.86 nm  f=0.0638  <S**2>=0.000
      45 -> 52         0.56503
      45 -> 53         0.24877
      45 -> 54         0.26807
      45 -> 56         0.11947

 Excited State  10:      Singlet-A      8.3915 eV  147.75 nm  f=0.0235  <S**2>=0.000
      44 -> 48         0.39932
      44 -> 49         0.47991
      44 -> 50        -0.23287
      44 -> 51         0.15891

 The electronic state is 1-A.
 Alpha  occ. eigenvalues --  -14.31184 -14.30840 -10.20763 -10.19907 -10.19900
 Alpha  occ. eigenvalues --  -10.19022 -10.17474 -10.17102 -10.17001 -10.16830
 Alpha  occ. eigenvalues --  -10.16769  -0.90558  -0.87895  -0.77363  -0.74870
 Alpha  occ. eigenvalues --   -0.73436  -0.70740  -0.65734  -0.62682  -0.59972
 Alpha  occ. eigenvalues --   -0.56552  -0.54604  -0.48377  -0.47662  -0.46815
 Alpha  occ. eigenvalues --   -0.44430  -0.43981  -0.42163  -0.41165  -0.40668
 Alpha  occ. eigenvalues --   -0.39955  -0.39149  -0.38224  -0.37642  -0.36558
 Alpha  occ. eigenvalues --   -0.35687  -0.34909  -0.33754  -0.33233  -0.33128
 Alpha  occ. eigenvalues --   -0.32288  -0.31477  -0.30517  -0.23351  -0.19985
 Alpha virt. eigenvalues --    0.08008   0.08728   0.11287   0.11522   0.12165
 Alpha virt. eigenvalues --    0.13420   0.14002   0.14749   0.15417   0.15694
 Alpha virt. eigenvalues --    0.15973   0.16810   0.17506   0.17833   0.18339

 Mulliken charges:
               1
     1  C   -0.323923
     2  C    0.057916
     3  N   -0.609084
     4  C   -0.174791
     5  C   -0.180591
     6  C   -0.025526
     7  N   -0.223770
     8  C   -0.005885
     9  C   -0.224352
    10  C    0.031640
    11  C   -0.289460
    12  H    0.099286
    13  H    0.100996
    14  H    0.102144
    15  H    0.094705
    16  H    0.231485
    17  H    0.242408
    18  H    0.098872
    19  H    0.091236
    20  H    0.076656
    21  H    0.105915
    22  H    0.108476
    23  H    0.104025
    24  H    0.047278
    25  H    0.061393
    26  H    0.014734
    27  H    0.049013
    28  H    0.059474
    29  H    0.054923
    30  H    0.021514
    31  H    0.074037
    32  H    0.091171
    33  H    0.038082
 Sum of Mulliken charges =  -0.00000

 Dipole moment (field-independent basis, Debye):
    X=             -3.8945    Y=             -0.5800    Z=              0.0166  Tot=              3.9375
 Quadrupole moment (field-independent basis, Debye-Ang):
   XX=            -77.8118   YY=            -78.0113   ZZ=            -74.6434
   XY=             -3.4622   XZ=              2.0846   YZ=             -0.7106

 Summary of Natural Population Analysis:

                                       Natural Population
                Natural  -----------------------------------------------
    Atom  No    Charge         Core      Valence    Rydberg      Total
 -----------------------------------------------------------------------
      C    1   -0.70747      1.99942     4.69989    0.00816     6.70747
      C    2   -0.05888      1.99924     4.04305    0.01659     6.05888
      N    3   -0.93317      1.99966     5.91789    0.01563     7.93317
      C    4   -0.47366      1.99928     4.46137    0.01300     6.47366
      C    5   -0.47534      1.99931     4.46134    0.01469     6.47534
      C    6   -0.32132      1.99925     4.30353    0.01854     6.32132
      N    7   -0.02703      1.99932     5.01925    0.00845     7.02703
      C    8   -0.31803      1.99932     4.29997    0.01874     6.31803
      C    9   -0.69917      1.99940     4.68942    0.01035     6.69917
      C   10   -0.32369      1.99929     4.30658    0.01783     6.32369
      C   11   -0.71630      1.99945     4.70533    0.01152     6.71630
      H   12    0.23204      0.00000     0.76541    0.00255     0.76796
      H   13    0.23541      0.00000     0.76292    0.00166     0.76459
      H   14    0.22798      0.00000     0.76986    0.00217     0.77202
      H   15    0.23252      0.00000     0.76427    0.00321     0.76748
      H   16    0.37258      0.00000     0.61970    0.00772     0.62742
      H   17    0.38547      0.00000     0.60978    0.00475     0.61453
      H   18    0.24549      0.00000     0.75123    0.00328     0.75451
      H   19    0.22924      0.00000     0.76644    0.00432     0.77076
      H   20    0.21828      0.00000     0.76720    0.01452     0.78172
      H   21    0.24013      0.00000     0.75548    0.00439     0.75987
      H   22    0.24421      0.00000     0.73715    0.01864     0.75579
      H   23    0.23569      0.00000     0.73991    0.02440     0.76431
      H   24    0.19307      0.00000     0.77590    0.03103     0.80693
      H   25    0.20244      0.00000     0.76824    0.02932     0.79756
      H   26    0.16607      0.00000     0.79653    0.03740     0.83393
      H   27    0.19834      0.00000     0.77972    0.02194     0.80166
      H   28    0.19921      0.00000     0.77959    0.02120     0.80079
      H   29    0.20269      0.00000     0.75416    0.04316     0.79731
      H   30    0.17269      0.00000     0.79135    0.03596     0.82731
      H   31    0.21630      0.00000     0.77069    0.01300     0.78370
      H   32    0.22418      0.00000     0.76615    0.00966     0.77582
      H   33    0.18003      0.00000     0.79142    0.02855     0.81997
 =======================================================================
   * Total *    0.00000     21.99295    67.49073    0.51632    90.00000

 1\1\GINC-CN33\SP\RB3LYP TD-FC\6-31G(d,p)\C9H22N2\QDUEZ\11-Jul-2024\0\\
 # TD(NStates=10, Root=1) B3LYP/6-31G** SCRF=(Solvent=water) volume pop
 =NPA density=current Geom=AllCheck Guess=Read\\CAPCBAYULRXQAN-VIFPVBQE
 SA-N_conf_0\\0,1\C,0,-4.4925217953,-0.4794401742,0.2535806757\C,0,-3.1
 143257049,0.0757449152,-0.1429062143\N,0,-2.587589256,-0.5191152818,-1
 .3870984476\C,0,-2.1086129463,-0.0852670433,1.0105850614\C,0,-0.751078
 9795,0.6243424184,0.8454746383\C,0,0.2749396999,-0.1359356619,-0.00893
 04148\N,0,1.5719317917,0.5531569839,-0.0777819512\C,0,2.2599128237,0.3

 Normal termination of Gaussian 16 at Thu Jul 11 19:33:39 2024.
