 Gaussian 16, Revision A.03,

 -------------------------------------------------------
 # opt=CalcFc B3LYP/6-31G** SCRF=(Solvent=water) scf=xqc
 -------------------------------------------------------

 ----------------------------------
 JTUXBPXZECVPKS-UHFFFAOYSA-N_conf_3
 ----------------------------------
 Symbolic Z-matrix:
 Charge =  0 Multiplicity = 1

 SCF Done:  E(RB3LYP) =  -724.471370667     A.U. after   13 cycles
 SCF Done:  E(RB3LYP) =  -724.475185538     A.U. after   10 cycles
 SCF Done:  E(RB3LYP) =  -724.475413543     A.U. after   10 cycles
 SCF Done:  E(RB3LYP) =  -724.475383983     A.U. after    9 cycles
 SCF Done:  E(RB3LYP) =  -724.475411155     A.U. after    9 cycles
 SCF Done:  E(RB3LYP) =  -724.475418726     A.U. after    9 cycles
 SCF Done:  E(RB3LYP) =  -724.475378176     A.U. after    9 cycles
 SCF Done:  E(RB3LYP) =  -724.475424866     A.U. after    8 cycles
 SCF Done:  E(RB3LYP) =  -724.475406681     A.U. after    8 cycles
 SCF Done:  E(RB3LYP) =  -724.475427510     A.U. after    8 cycles
 SCF Done:  E(RB3LYP) =  -724.475423631     A.U. after    7 cycles
 Optimization completed.
    -- Stationary point found.
 Normal termination of Gaussian 16 at Thu Jul 18 05:02:37 2024.

 ----------------------------------------------------------------------
 # freq B3LYP/6-31G** SCRF=(Solvent=water) volume NMR pop=NPA density=c
 urrent Geom=AllCheck Guess=Read
 ----------------------------------------------------------------------

 Structure from the checkpoint file:  "JTUXBPXZECVPKS-UHFFFAOYSA-N_conf_3_1.chk"
 ----------------------------------
 JTUXBPXZECVPKS-UHFFFAOYSA-N_conf_3
 ----------------------------------
 Charge =  0 Multiplicity = 1

 SCF Done:  E(RB3LYP) =  -724.475423631     A.U. after    1 cycles

      1  O    Isotropic =   233.0024   Anisotropy =    39.2023

      2  C    Isotropic =    46.5874   Anisotropy =   124.3511

      3  C    Isotropic =    94.4726   Anisotropy =    89.6206

      4  C    Isotropic =    50.8986   Anisotropy =   156.1192

      5  N    Isotropic =   200.0495   Anisotropy =    73.6559

      6  C    Isotropic =    90.6237   Anisotropy =   117.3909

      7  C    Isotropic =    70.6016   Anisotropy =   145.2111

      8  C    Isotropic =    64.3736   Anisotropy =    84.3160

      9  O    Isotropic =   207.5653   Anisotropy =    84.3837

     10  C    Isotropic =    45.2918   Anisotropy =   111.2864

     11  C    Isotropic =    80.1319   Anisotropy =   136.4052

     12  C    Isotropic =    81.3818   Anisotropy =   130.7513

     13  C    Isotropic =    55.7195   Anisotropy =   153.3954

     14  N    Isotropic =   203.5785   Anisotropy =    74.6494

     15  C    Isotropic =    82.2057   Anisotropy =   129.1978

     16  C    Isotropic =    83.8429   Anisotropy =   146.3833

     17  H    Isotropic =    27.6483   Anisotropy =    15.3740

     18  H    Isotropic =    25.7553   Anisotropy =     6.1870

     19  H    Isotropic =    28.6286   Anisotropy =    12.1016

     20  H    Isotropic =    28.6238   Anisotropy =    12.4112

     21  H    Isotropic =    25.5718   Anisotropy =     4.4795

     22  H    Isotropic =    24.8476   Anisotropy =     6.2847

     23  H    Isotropic =    24.8579   Anisotropy =     5.7968

     24  H    Isotropic =    25.0953   Anisotropy =     5.2089

     25  H    Isotropic =    28.8651   Anisotropy =    12.1409

     26  H    Isotropic =    28.8395   Anisotropy =    12.4495

     27  H    Isotropic =    25.2952   Anisotropy =     6.4236

     28  H    Isotropic =    25.4204   Anisotropy =    10.7875

  Exact polarizability: 275.833 -27.754 150.655   2.397   6.194 145.989
 Approx polarizability: 303.405 -37.558 195.593   5.043  10.677 183.882

                      1                      2                      3
                      A                      A                      A
 Frequencies --     27.2893                36.7585                54.2548
 Red. masses --      4.5824                 4.5956                 4.9836
 Frc consts  --      0.0020                 0.0037                 0.0086
 IR Inten    --      3.9284                 0.6401                 4.6007

                      4                      5                      6
                      A                      A                      A
 Frequencies --    135.2638               151.0457               230.4450
 Red. masses --      5.3047                 5.0695                 4.8931
 Frc consts  --      0.0572                 0.0681                 0.1531
 IR Inten    --      0.6039                 1.2077                 3.8789

                      7                      8                      9
                      A                      A                      A
 Frequencies --    253.8214               271.5196               300.2434
 Red. masses --      4.9081                 1.0645                 6.9284
 Frc consts  --      0.1863                 0.0462                 0.3680
 IR Inten    --      5.1627                36.2045                 2.1109

                     10                     11                     12
                      A                      A                      A
 Frequencies --    312.6684               324.7306               341.6545
 Red. masses --      1.0445                 3.3273                 2.3606
 Frc consts  --      0.0602                 0.2067                 0.1624
 IR Inten    --     35.4187                19.2536                39.1681

                     13                     14                     15
                      A                      A                      A
 Frequencies --    365.8478               374.6162               403.7034
 Red. masses --      1.8536                 4.1833                 3.2281
 Frc consts  --      0.1462                 0.3459                 0.3100
 IR Inten    --     93.2884                16.0488                 7.4399

                     16                     17                     18
                      A                      A                      A
 Frequencies --    423.6270               462.8725               493.9378
 Red. masses --      3.2239                 3.0677                 6.2581
 Frc consts  --      0.3409                 0.3872                 0.8996
 IR Inten    --      0.3837                19.9977                 2.8699

                     19                     20                     21
                      A                      A                      A
 Frequencies --    516.2422               519.8646               569.2607
 Red. masses --      4.5218                 2.2545                 6.3107
 Frc consts  --      0.7100                 0.3590                 1.2049
 IR Inten    --     23.2458                49.2519                 6.9340

                     22                     23                     24
                      A                      A                      A
 Frequencies --    592.0612               595.1052               650.8050
 Red. masses --      1.5523                 6.5290                 5.4482
 Frc consts  --      0.3206                 1.3623                 1.3596
 IR Inten    --    443.8126                23.7244                19.7046

                     25                     26                     27
                      A                      A                      A
 Frequencies --    652.3109               660.9283               696.6019
 Red. masses --      2.0687                 2.1634                 4.2496
 Frc consts  --      0.5186                 0.5568                 1.2150
 IR Inten    --    461.6083               172.9951                 2.5065

                     28                     29                     30
                      A                      A                      A
 Frequencies --    713.1236               757.4802               761.5183
 Red. masses --      3.7720                 3.9884                 4.1215
 Frc consts  --      1.1302                 1.3483                 1.4082
 IR Inten    --     61.3909                 9.8799                15.1821

                     31                     32                     33
                      A                      A                      A
 Frequencies --    810.1364               817.5659               818.7809
 Red. masses --      1.5699                 1.5548                 1.3594
 Frc consts  --      0.6071                 0.6123                 0.5369
 IR Inten    --      4.1622                69.9911                20.1552

                     34                     35                     36
                      A                      A                      A
 Frequencies --    827.4336               843.1724               876.7823
 Red. masses --      2.6040                 2.3424                 6.0994
 Frc consts  --      1.0504                 0.9812                 2.7626
 IR Inten    --     30.8628                88.8703                39.4193

                     37                     38                     39
                      A                      A                      A
 Frequencies --    932.3925               935.2842               943.3133
 Red. masses --      1.2673                 1.2897                 1.2975
 Frc consts  --      0.6491                 0.6647                 0.6802
 IR Inten    --      0.5217                 3.8120                 0.1021

                     40                     41                     42
                      A                      A                      A
 Frequencies --    982.4230              1023.8988              1098.8628
 Red. masses --      2.9511                 2.6134                 1.4242
 Frc consts  --      1.6781                 1.6143                 1.0132
 IR Inten    --     23.7907                 6.7750                 6.0724

                     43                     44                     45
                      A                      A                      A
 Frequencies --   1109.4720              1141.0916              1151.8711
 Red. masses --      1.6438                 1.4976                 1.1821
 Frc consts  --      1.1922                 1.1489                 0.9241
 IR Inten    --     39.4896                89.3757                22.4733

                     46                     47                     48
                      A                      A                      A
 Frequencies --   1185.1995              1188.9030              1224.1372
 Red. masses --      1.3855                 1.2553                 2.4051
 Frc consts  --      1.1467                 1.0454                 2.1235
 IR Inten    --     49.5494                34.3103                58.2282

                     49                     50                     51
                      A                      A                      A
 Frequencies --   1236.3893              1262.9793              1305.2774
 Red. masses --      1.8732                 3.0987                 3.7936
 Frc consts  --      1.6871                 2.9122                 3.8081
 IR Inten    --     38.7683               992.0989                13.6291

                     52                     53                     54
                      A                      A                      A
 Frequencies --   1313.4221              1334.7860              1363.3803
 Red. masses --      1.7944                 1.6826                 3.2084
 Frc consts  --      1.8238                 1.7662                 3.5137
 IR Inten    --     52.3192                 2.2229                46.3421

                     55                     56                     57
                      A                      A                      A
 Frequencies --   1370.2236              1382.8438              1480.1237
 Red. masses --      3.7985                 3.1215                 3.0313
 Frc consts  --      4.2019                 3.5170                 3.9127
 IR Inten    --     54.6429                16.0930                 3.9331

                     58                     59                     60
                      A                      A                      A
 Frequencies --   1493.1865              1545.4581              1564.4462
 Red. masses --      3.8118                 2.5801                 2.9402
 Frc consts  --      5.0074                 3.6308                 4.2399
 IR Inten    --     50.0335               578.8214               173.3558

                     61                     62                     63
                      A                      A                      A
 Frequencies --   1638.3407              1643.8725              1656.1214
 Red. masses --      6.5846                 6.1946                 1.5283
 Frc consts  --     10.4133                 9.8628                 2.4697
 IR Inten    --      8.3162                55.2880                49.8886

                     64                     65                     66
                      A                      A                      A
 Frequencies --   1658.3583              1669.1586              1675.8865
 Red. masses --      1.2327                 2.5683                 4.4323
 Frc consts  --      1.9974                 4.2160                 7.3344
 IR Inten    --     17.6935               236.5891                31.7026

                     67                     68                     69
                      A                      A                      A
 Frequencies --   3172.3903              3178.7746              3179.7450
 Red. masses --      1.0908                 1.0895                 1.0884
 Frc consts  --      6.4678                 6.4861                 6.4840
 IR Inten    --     17.2955                27.6670                29.8958

                     70                     71                     72
                      A                      A                      A
 Frequencies --   3190.6522              3203.9396              3207.1359
 Red. masses --      1.0879                 1.0937                 1.0949
 Frc consts  --      6.5252                 6.6151                 6.6354
 IR Inten    --     18.6027                16.6181                12.9215

                     73                     74                     75
                      A                      A                      A
 Frequencies --   3215.9814              3549.1291              3561.8809
 Red. masses --      1.0919                 1.0490                 1.0486
 Frc consts  --      6.6539                 7.7851                 7.8380
 IR Inten    --      6.8108                20.3892                36.4607

                     76                     77                     78
                      A                      A                      A
 Frequencies --   3647.0683              3663.4064              3809.9276
 Red. masses --      1.0971                 1.0982                 1.0662
 Frc consts  --      8.5974                 8.6835                 9.1182
 IR Inten    --     17.8196                24.0832                99.9320

 - Thermochemistry -
 -------------------
 Temperature   298.150 Kelvin.  Pressure   1.00000 Atm.
 Atom     1 has atomic number  8 and mass  15.99491

 Molecular mass:   216.08988 amu.
 Principal axes and moments of inertia in atomic units:
                           1         2         3
     Eigenvalues --  1271.483997330.035787395.90290
           X            1.00000  -0.00092  -0.00129
           Y            0.00090   0.99987  -0.01630
           Z            0.00130   0.01630   0.99987
 This molecule is an asymmetric top.
 Rotational symmetry number  1.
 Warning -- assumption of classical behavior for rotation
           may cause significant error
 Rotational temperatures (Kelvin)      0.06812     0.01182     0.01171
 Rotational constants (GHZ):           1.41940     0.24621     0.24402
 Zero-point vibrational energy     584582.8 (Joules/Mol)
                                  139.71864 (Kcal/Mol)
 Warning -- explicit consideration of  23 degrees of freedom as
           vibrations may cause significant error
 Vibrational temperatures:     39.26    52.89    78.06   194.61   217.32
          (Kelvin)            331.56   365.19   390.66   431.98   449.86
                              467.21   491.56   526.37   538.99   580.84
                              609.50   665.97   710.67   742.76   747.97
                              819.04   851.84   856.22   936.36   938.53
                              950.93  1002.25  1026.03  1089.85  1095.65
                             1165.61  1176.30  1178.04  1190.49  1213.14
                             1261.49  1341.50  1345.67  1357.22  1413.49
                             1473.16  1581.02  1596.28  1641.78  1657.29
                             1705.24  1710.57  1761.26  1778.89  1817.15
                             1878.00  1889.72  1920.46  1961.60  1971.45
                             1989.60  2129.57  2148.36  2223.57  2250.89
                             2357.21  2365.17  2382.79  2386.01  2401.55
                             2411.23  4564.36  4573.55  4574.94  4590.64
                             4609.75  4614.35  4627.08  5106.41  5124.75
                             5247.32  5270.82  5481.64

 Zero-point correction=                           0.222656 (Hartree/Particle)
 Thermal correction to Energy=                    0.236781
 Thermal correction to Enthalpy=                  0.237725
 Thermal correction to Gibbs Free Energy=         0.181090
 Sum of electronic and zero-point Energies=           -724.252768
 Sum of electronic and thermal Energies=              -724.238643
 Sum of electronic and thermal Enthalpies=            -724.237699
 Sum of electronic and thermal Free Energies=         -724.294334

                     E (Thermal)             CV                S
                      KCal/Mol        Cal/Mol-Kelvin    Cal/Mol-Kelvin
 Total                  148.582             56.540            119.199
 Electronic               0.000              0.000              0.000
 Translational            0.889              2.981             42.015
 Rotational               0.889              2.981             32.600
 Vibrational            146.805             50.578             44.585
 Vibration     1          0.593              1.984              6.017
 Vibration     2          0.594              1.982              5.427
 Vibration     3          0.596              1.976              4.656
 Vibration     4          0.613              1.918              2.870
 Vibration     5          0.618              1.902              2.659
 Vibration     6          0.652              1.794              1.875
 Vibration     7          0.665              1.756              1.704
 Vibration     8          0.675              1.726              1.587
 Vibration     9          0.693              1.673              1.416
 Vibration    10          0.701              1.650              1.348
 Vibration    11          0.709              1.626              1.286
 Vibration    12          0.721              1.592              1.204
 Vibration    13          0.739              1.543              1.097
 Vibration    14          0.746              1.524              1.061
 Vibration    15          0.769              1.462              0.949
 Vibration    16          0.786              1.419              0.880
 Vibration    17          0.821              1.332              0.758
 Vibration    18          0.850              1.263              0.673
 Vibration    19          0.871              1.214              0.619
 Vibration    20          0.875              1.206              0.610
 Vibration    21          0.925              1.098              0.506
 Vibration    22          0.950              1.049              0.464
 Vibration    23          0.953              1.042              0.458

 Optimization completed.
    -- Stationary point found.
 Normal termination of Gaussian 16 at Thu Jul 18 05:13:42 2024.
 Gaussian 16:  ES64L-G16RevA.03 25-Dec-2016

 ----------------------------------------------------------------------
 # TD(NStates=10, Root=1) B3LYP/6-31G** SCRF=(Solvent=water) volume pop
 =NPA density=current Geom=AllCheck Guess=Read
 ----------------------------------------------------------------------

 Structure from the checkpoint file:  "JTUXBPXZECVPKS-UHFFFAOYSA-N_conf_3_2.chk"
 ----------------------------------
 JTUXBPXZECVPKS-UHFFFAOYSA-N_conf_3
 ----------------------------------
 Charge =  0 Multiplicity = 1

                         Standard orientation:
 ---------------------------------------------------------------------
 Center     Atomic      Atomic             Coordinates (Angstroms)
 Number     Number       Type             X           Y           Z
 ---------------------------------------------------------------------
      1          8           0        0.915257    1.327335   -1.706098
      2          6           0        1.658618    0.675898   -0.765891
      3          6           0        2.918853    0.141338   -1.037019
      4          6           0        3.658611   -0.509591   -0.033180
      5          7           0        4.889987   -1.093831   -0.333517
      6          6           0        3.106851   -0.614190    1.255910
      7          6           0        1.844417   -0.084930    1.518066
      8          6           0        1.111754    0.556699    0.524109
      9          8           0       -0.100183    1.162385    0.831114
     10          6           0       -1.282109    0.534744    0.462658
     11          6           0       -2.453328    1.277208    0.635559
     12          6           0       -3.690405    0.722461    0.319779
     13          6           0       -3.788964   -0.588717   -0.179597
     14          7           0       -5.029626   -1.121632   -0.565894
     15          6           0       -2.602623   -1.320561   -0.345095
     16          6           0       -1.359853   -0.769343   -0.027235
     17          1           0        1.397138    1.332415   -2.545173
     18          1           0        3.333577    0.235822   -2.038117
     19          1           0        5.380902   -0.674372   -1.112905
     20          1           0        5.504805   -1.209520    0.462033
     21          1           0        3.664975   -1.108932    2.044954
     22          1           0        1.413660   -0.155595    2.512102
     23          1           0       -2.384206    2.289298    1.022116
     24          1           0       -4.592471    1.312709    0.458505
     25          1           0       -5.067537   -2.133324   -0.529656
     26          1           0       -5.816114   -0.728435   -0.062839
     27          1           0       -2.649849   -2.337132   -0.727152
     28          1           0       -0.458929   -1.358556   -0.156500
 ---------------------------------------------------------------------

 SCF Done:  E(RB3LYP) =  -724.475423631     A.U. after    1 cycles

 Excitation energies and oscillator strengths:

 Excited State   1:      Singlet-A      4.3705 eV  283.68 nm  f=0.1334  <S**2>=0.000
      54 -> 61         0.12583
      57 -> 58         0.69079
 This state for optimization and/or second-order correction.
 Total Energy, E(TD-HF/TD-DFT) =  -724.314810201
 Copying the excited state density for this state as the 1-particle RhoCI density.

 Excited State   2:      Singlet-A      4.6320 eV  267.67 nm  f=0.1018  <S**2>=0.000
      55 -> 60         0.13793
      56 -> 58        -0.39265
      56 -> 59        -0.13306
      57 -> 59         0.54321

 Excited State   3:      Singlet-A      4.7050 eV  263.51 nm  f=0.0113  <S**2>=0.000
      56 -> 58         0.54051
      57 -> 59         0.43227

 Excited State   4:      Singlet-A      4.9003 eV  253.01 nm  f=0.0523  <S**2>=0.000
      55 -> 60        -0.14747
      56 -> 58        -0.19444
      56 -> 59         0.64758

 Excited State   5:      Singlet-A      5.0603 eV  245.01 nm  f=0.0838  <S**2>=0.000
      57 -> 60         0.69896

 Excited State   6:      Singlet-A      5.3737 eV  230.72 nm  f=0.5261  <S**2>=0.000
      56 -> 60        -0.43414
      56 -> 61        -0.10555
      57 -> 61         0.52548

 Excited State   7:      Singlet-A      5.5927 eV  221.69 nm  f=0.1281  <S**2>=0.000
      55 -> 58        -0.20694
      56 -> 60        -0.20369
      56 -> 61         0.63058

 Excited State   8:      Singlet-A      5.6127 eV  220.90 nm  f=0.1140  <S**2>=0.000
      54 -> 58        -0.13599
      55 -> 58         0.29375
      56 -> 60         0.37114
      56 -> 61         0.27987
      57 -> 61         0.39298

 Excited State   9:      Singlet-A      5.7113 eV  217.09 nm  f=0.0888  <S**2>=0.000
      55 -> 58         0.58243
      55 -> 59        -0.25769
      56 -> 60        -0.24026
      57 -> 61        -0.15121

 Excited State  10:      Singlet-A      6.0716 eV  204.20 nm  f=0.3305  <S**2>=0.000
      55 -> 58         0.13836
      55 -> 59         0.60728
      55 -> 60        -0.14489
      56 -> 60        -0.21716

 The electronic state is 1-A.
 Alpha  occ. eigenvalues --  -19.18225 -19.17942 -14.33814 -14.33275 -10.25397
 Alpha  occ. eigenvalues --  -10.23973 -10.23409 -10.23252 -10.22245 -10.19251
 Alpha  occ. eigenvalues --  -10.18631 -10.18608 -10.18561 -10.18510 -10.18466
 Alpha  occ. eigenvalues --  -10.18128  -1.07262  -1.05376  -0.91640  -0.90987
 Alpha  occ. eigenvalues --   -0.84225  -0.82618  -0.74763  -0.74319  -0.73756
 Alpha  occ. eigenvalues --   -0.70380  -0.63388  -0.62501  -0.60890  -0.57868
 Alpha  occ. eigenvalues --   -0.55062  -0.54018  -0.51497  -0.50913  -0.49961
 Alpha  occ. eigenvalues --   -0.47697  -0.45819  -0.44995  -0.43926  -0.43450
 Alpha  occ. eigenvalues --   -0.42038  -0.41624  -0.40821  -0.39638  -0.39234
 Alpha  occ. eigenvalues --   -0.37850  -0.36714  -0.36562  -0.35815  -0.34300
 Alpha  occ. eigenvalues --   -0.33553  -0.29261  -0.28144  -0.25100  -0.23357
 Alpha  occ. eigenvalues --   -0.20069  -0.18979
 Alpha virt. eigenvalues --   -0.00502   0.00498   0.01899   0.02725   0.07956
 Alpha virt. eigenvalues --    0.09099   0.09390   0.10674   0.11260   0.13122
 Alpha virt. eigenvalues --    0.13306   0.16484   0.17163   0.17357   0.17545

 Mulliken charges:
               1
     1  O   -0.581458
     2  C    0.308683
     3  C   -0.208663
     4  C    0.268717
     5  N   -0.673218
     6  C   -0.158242
     7  C   -0.151778
     8  C    0.259904
     9  O   -0.555518
    10  C    0.345135
    11  C   -0.180584
    12  C   -0.156820
    13  C    0.259759
    14  N   -0.593110
    15  C   -0.171049
    16  C   -0.160395
    17  H    0.343520
    18  H    0.095425
    19  H    0.279549
    20  H    0.280361
    21  H    0.089779
    22  H    0.096591
    23  H    0.083823
    24  H    0.085549
    25  H    0.305114
    26  H    0.306021
    27  H    0.086468
    28  H    0.096436
 Sum of Mulliken charges =  -0.00000

 Dipole moment (field-independent basis, Debye):
    X=             -0.4562    Y=             -2.6023    Z=             -1.4673  Tot=              3.0221
 Quadrupole moment (field-independent basis, Debye-Ang):
   XX=            -36.3806   YY=            -91.8756   ZZ=            -86.2208
   XY=             11.1449   XZ=             -6.7968   YZ=             -3.0760

 Summary of Natural Population Analysis:

                                       Natural Population
                Natural  -----------------------------------------------
    Atom  No    Charge         Core      Valence    Rydberg      Total
 -----------------------------------------------------------------------
      O    1   -0.70704      1.99978     6.69648    0.01077     8.70704
      C    2    0.29854      1.99870     3.68035    0.02240     5.70146
      C    3   -0.39864      1.99897     4.38615    0.01353     6.39864
      C    4    0.18266      1.99900     3.80069    0.01765     5.81734
      N    5   -0.84804      1.99951     5.83681    0.01172     7.84804
      C    6   -0.32471      1.99904     4.31209    0.01358     6.32471
      C    7   -0.28954      1.99903     4.27442    0.01610     6.28954
      C    8    0.19554      1.99863     3.78229    0.02354     5.80446
      O    9   -0.46080      1.99972     6.44932    0.01176     8.46080
      C   10    0.36907      1.99869     3.60984    0.02239     5.63093
      C   11   -0.36541      1.99905     4.34646    0.01990     6.36541
      C   12   -0.33198      1.99906     4.31496    0.01795     6.33198
      C   13    0.18810      1.99895     3.79529    0.01766     5.81190
      N   14   -0.72062      1.99948     5.71085    0.01029     7.72062
      C   15   -0.34098      1.99906     4.32301    0.01890     6.34098
      C   16   -0.36235      1.99903     4.34591    0.01740     6.36235
      H   17    0.51290      0.00000     0.48338    0.00372     0.48710
      H   18    0.24385      0.00000     0.75452    0.00164     0.75615
      H   19    0.41520      0.00000     0.58229    0.00252     0.58480
      H   20    0.41611      0.00000     0.58154    0.00235     0.58389
      H   21    0.24393      0.00000     0.75461    0.00145     0.75607
      H   22    0.25259      0.00000     0.74573    0.00168     0.74741
      H   23    0.24510      0.00000     0.75297    0.00193     0.75490
      H   24    0.23956      0.00000     0.75873    0.00171     0.76044
      H   25    0.42713      0.00000     0.56985    0.00302     0.57287
      H   26    0.42796      0.00000     0.56924    0.00279     0.57204
      H   27    0.23968      0.00000     0.75859    0.00172     0.76032
      H   28    0.25218      0.00000     0.74621    0.00160     0.74782
 =======================================================================
   * Total *    0.00000     31.98572    81.72260    0.29168   114.00000

 Normal termination of Gaussian 16 at Thu Jul 18 05:26:13 2024.
