 Gaussian 16, Revision A.03,

 -------------------------------------------------------
 # opt=CalcFc B3LYP/6-31G** SCRF=(Solvent=water) scf=xqc
 -------------------------------------------------------

 ----------------------------------
 JTUXBPXZECVPKS-UHFFFAOYSA-N_conf_0
 ----------------------------------
 Symbolic Z-matrix:
 Charge =  0 Multiplicity = 1

 SCF Done:  E(RB3LYP) =  -724.471315991     A.U. after   13 cycles
 SCF Done:  E(RB3LYP) =  -724.475172469     A.U. after   10 cycles
 SCF Done:  E(RB3LYP) =  -724.475369329     A.U. after   12 cycles
 SCF Done:  E(RB3LYP) =  -724.475407359     A.U. after    9 cycles
 SCF Done:  E(RB3LYP) =  -724.475399156     A.U. after    8 cycles
 SCF Done:  E(RB3LYP) =  -724.475397957     A.U. after    6 cycles
 SCF Done:  E(RB3LYP) =  -724.475398020     A.U. after    6 cycles
 Optimization completed.
    -- Stationary point found.
 Normal termination of Gaussian 16 at Thu Jul 18 04:46:25 2024.

 ----------------------------------------------------------------------
 # freq B3LYP/6-31G** SCRF=(Solvent=water) volume NMR pop=NPA density=c
 urrent Geom=AllCheck Guess=Read
 ----------------------------------------------------------------------

 Structure from the checkpoint file:  "JTUXBPXZECVPKS-UHFFFAOYSA-N_conf_0_1.chk"
 ----------------------------------
 JTUXBPXZECVPKS-UHFFFAOYSA-N_conf_0
 ----------------------------------
 Charge =  0 Multiplicity = 1

 SCF Done:  E(RB3LYP) =  -724.475398020     A.U. after    1 cycles

      1  O    Isotropic =   233.0498   Anisotropy =    39.0196

      2  C    Isotropic =    46.5956   Anisotropy =   124.3174

      3  C    Isotropic =    94.4648   Anisotropy =    89.5540

      4  C    Isotropic =    50.8943   Anisotropy =   156.1061

      5  N    Isotropic =   200.0493   Anisotropy =    73.6438

      6  C    Isotropic =    90.6112   Anisotropy =   117.4212

      7  C    Isotropic =    70.5671   Anisotropy =   145.2246

      8  C    Isotropic =    64.3789   Anisotropy =    84.2999

      9  O    Isotropic =   207.5601   Anisotropy =    84.3998

     10  C    Isotropic =    45.2796   Anisotropy =   111.3295

     11  C    Isotropic =    80.1039   Anisotropy =   136.4219

     12  C    Isotropic =    81.3650   Anisotropy =   130.7848

     13  C    Isotropic =    55.7115   Anisotropy =   153.3969

     14  N    Isotropic =   203.5252   Anisotropy =    74.7905

     15  C    Isotropic =    82.2051   Anisotropy =   129.1488

     16  C    Isotropic =    83.8879   Anisotropy =   146.3308

     17  H    Isotropic =    27.6759   Anisotropy =    15.3463

     18  H    Isotropic =    25.7650   Anisotropy =     6.2026

     19  H    Isotropic =    28.6241   Anisotropy =    12.4312

     20  H    Isotropic =    28.6325   Anisotropy =    12.0797

     21  H    Isotropic =    25.5666   Anisotropy =     4.4638

     22  H    Isotropic =    24.8305   Anisotropy =     6.3077

     23  H    Isotropic =    24.8563   Anisotropy =     5.7916

     24  H    Isotropic =    25.0959   Anisotropy =     5.2052

     25  H    Isotropic =    28.8387   Anisotropy =    12.3527

     26  H    Isotropic =    28.8686   Anisotropy =    12.1055

     27  H    Isotropic =    25.2920   Anisotropy =     6.4169

     28  H    Isotropic =    25.4206   Anisotropy =    10.7603

  Exact polarizability: 275.503 -28.119 150.784  -5.409  -6.523 146.028
 Approx polarizability: 303.498 -36.963 196.780  -6.410  -9.817 182.489

                      1                      2                      3
                      A                      A                      A
 Frequencies --     24.8051                37.5999                54.3490
 Red. masses --      4.5979                 4.4590                 5.0882
 Frc consts  --      0.0017                 0.0037                 0.0089
 IR Inten    --      2.1182                 1.7216                 2.7395

                      4                      5                      6
                      A                      A                      A
 Frequencies --    134.6942               151.2749               230.1202
 Red. masses --      5.2824                 5.1366                 4.7732
 Frc consts  --      0.0565                 0.0693                 0.1489
 IR Inten    --      2.5110                 1.0162                 4.4095

                      7                      8                      9
                      A                      A                      A
 Frequencies --    254.5013               273.0144               298.3093
 Red. masses --      5.2414                 1.0493                 7.1123
 Frc consts  --      0.2000                 0.0461                 0.3729
 IR Inten    --      3.2634                38.0334                 2.3112

                     10                     11                     12
                      A                      A                      A
 Frequencies --    314.6184               324.1992               338.3642
 Red. masses --      1.0449                 3.0412                 2.0700
 Frc consts  --      0.0609                 0.1883                 0.1396
 IR Inten    --     35.5518                22.9128                58.4477

                     13                     14                     15
                      A                      A                      A
 Frequencies --    363.1039               374.0619               403.1690
 Red. masses --      1.9986                 5.2862                 3.2095
 Frc consts  --      0.1553                 0.4358                 0.3074
 IR Inten    --     64.0256                19.2110                 5.2188

                     16                     17                     18
                      A                      A                      A
 Frequencies --    424.2054               462.3991               492.5514
 Red. masses --      3.2257                 3.0582                 6.0890
 Frc consts  --      0.3420                 0.3853                 0.8704
 IR Inten    --      1.2092                20.9455                 7.6191

                     19                     20                     21
                      A                      A                      A
 Frequencies --    514.6103               519.7627               569.3325
 Red. masses --      4.2335                 2.3529                 6.1900
 Frc consts  --      0.6606                 0.3745                 1.1821
 IR Inten    --     31.2053                43.8400                 5.1318

                     22                     23                     24
                      A                      A                      A
 Frequencies --    591.7733               594.6845               650.2139
 Red. masses --      1.5617                 6.3915                 4.5898
 Frc consts  --      0.3222                 1.3318                 1.1433
 IR Inten    --    435.7765                35.9294                49.6705

                     25                     26                     27
                      A                      A                      A
 Frequencies --    652.5874               660.0251               695.8197
 Red. masses --      2.1047                 2.3395                 4.2482
 Frc consts  --      0.5281                 0.6005                 1.2119
 IR Inten    --    450.9763               129.6389                 9.3892

                     28                     29                     30
                      A                      A                      A
 Frequencies --    715.6662               755.3163               760.1344
 Red. masses --      3.5587                 3.4290                 5.1028
 Frc consts  --      1.0739                 1.1526                 1.7372
 IR Inten    --     80.7318                18.2157                 9.0013

                     31                     32                     33
                      A                      A                      A
 Frequencies --    809.1757               817.3783               818.4801
 Red. masses --      1.5528                 1.7073                 1.2561
 Frc consts  --      0.5990                 0.6721                 0.4958
 IR Inten    --      5.6383                92.6154                 0.7018

                     34                     35                     36
                      A                      A                      A
 Frequencies --    831.6680               839.6463               876.6184
 Red. masses --      3.2573                 2.0224                 6.0636
 Frc consts  --      1.3274                 0.8401                 2.7454
 IR Inten    --     27.7002                84.3238                40.4614

                     37                     38                     39
                      A                      A                      A
 Frequencies --    932.4513               935.1201               943.4716
 Red. masses --      1.2696                 1.2895                 1.2980
 Frc consts  --      0.6504                 0.6644                 0.6808
 IR Inten    --      0.3281                 3.5726                 0.0936

                     40                     41                     42
                      A                      A                      A
 Frequencies --    981.7279              1024.0878              1095.6427
 Red. masses --      2.9461                 2.6129                 1.4217
 Frc consts  --      1.6729                 1.6146                 1.0056
 IR Inten    --     22.2365                 7.3836                 5.8712

                     43                     44                     45
                      A                      A                      A
 Frequencies --   1108.1393              1141.1082              1151.9379
 Red. masses --      1.6383                 1.5009                 1.1825
 Frc consts  --      1.1853                 1.1515                 0.9245
 IR Inten    --     39.4121                88.6252                22.2359

                     46                     47                     48
                      A                      A                      A
 Frequencies --   1184.7531              1188.3654              1223.5702
 Red. masses --      1.3870                 1.2418                 2.4698
 Frc consts  --      1.1471                 1.0332                 2.1786
 IR Inten    --     51.6708                29.1248                57.8625

                     49                     50                     51
                      A                      A                      A
 Frequencies --   1235.7448              1262.0232              1305.1051
 Red. masses --      1.8465                 3.1540                 3.6758
 Frc consts  --      1.6613                 2.9597                 3.6888
 IR Inten    --     33.0891              1005.3285                13.5091

                     52                     53                     54
                      A                      A                      A
 Frequencies --   1311.7459              1334.0391              1362.8341
 Red. masses --      1.7857                 1.6469                 3.2629
 Frc consts  --      1.8103                 1.7268                 3.5705
 IR Inten    --     42.4825                 2.0601                46.1304

                     55                     56                     57
                      A                      A                      A
 Frequencies --   1369.8115              1381.8557              1479.5207
 Red. masses --      3.9108                 3.2286                 3.0607
 Frc consts  --      4.3235                 3.6323                 3.9474
 IR Inten    --     54.8474                12.3048                 3.9498

                     58                     59                     60
                      A                      A                      A
 Frequencies --   1493.0334              1544.8376              1563.6617
 Red. masses --      3.8163                 2.5817                 2.9625
 Frc consts  --      5.0122                 3.6301                 4.2677
 IR Inten    --     49.6722               581.8467               174.8190

                     61                     62                     63
                      A                      A                      A
 Frequencies --   1638.2754              1643.6116              1655.3868
 Red. masses --      6.5814                 6.2606                 1.3785
 Frc consts  --     10.4073                 9.9647                 2.2256
 IR Inten    --      8.9778                53.9005                45.8011

                     64                     65                     66
                      A                      A                      A
 Frequencies --   1657.5455              1669.1401              1675.8067
 Red. masses --      1.3405                 2.5668                 4.5919
 Frc consts  --      2.1699                 4.2134                 7.5978
 IR Inten    --     28.9202               233.7671                29.6794

                     67                     68                     69
                      A                      A                      A
 Frequencies --   3171.4990              3178.8637              3179.9255
 Red. masses --      1.0909                 1.0894                 1.0884
 Frc consts  --      6.4647                 6.4862                 6.4845
 IR Inten    --     17.2903                27.2552                29.8940

                     70                     71                     72
                      A                      A                      A
 Frequencies --   3190.4357              3203.9040              3207.0007
 Red. masses --      1.0879                 1.0938                 1.0949
 Frc consts  --      6.5245                 6.6151                 6.6348
 IR Inten    --     18.3518                16.6524                12.8257

                     73                     74                     75
                      A                      A                      A
 Frequencies --   3215.9329              3549.0461              3561.6089
 Red. masses --      1.0919                 1.0490                 1.0486
 Frc consts  --      6.6538                 7.7846                 7.8368
 IR Inten    --      6.8134                20.8022                36.1037

                     76                     77                     78
                      A                      A                      A
 Frequencies --   3646.5885              3663.1012              3808.7889
 Red. masses --      1.0970                 1.0982                 1.0662
 Frc consts  --      8.5946                 8.6822                 9.1132
 IR Inten    --     18.0501                23.8646                99.9155

 - Thermochemistry -
 -------------------
 Temperature   298.150 Kelvin.  Pressure   1.00000 Atm.
 Atom     1 has atomic number  8 and mass  15.99491

 Molecular mass:   216.08988 amu.
 Principal axes and moments of inertia in atomic units:
                           1         2         3
     Eigenvalues --  1271.078767331.602757399.19145
           X            0.99999  -0.00235  -0.00228
           Y            0.00221   0.99814  -0.06098
           Z            0.00242   0.06097   0.99814
 This molecule is an asymmetric top.
 Rotational symmetry number  1.
 Warning -- assumption of classical behavior for rotation
           may cause significant error
 Rotational temperatures (Kelvin)      0.06814     0.01181     0.01171
 Rotational constants (GHZ):           1.41985     0.24616     0.24391
 Zero-point vibrational energy     584371.5 (Joules/Mol)
                                  139.66814 (Kcal/Mol)
 Warning -- explicit consideration of  23 degrees of freedom as
           vibrations may cause significant error
 Vibrational temperatures:     35.69    54.10    78.20   193.79   217.65
          (Kelvin)            331.09   366.17   392.81   429.20   452.67
                              466.45   486.83   522.43   538.19   580.07
                              610.34   665.29   708.67   740.41   747.82
                              819.14   851.43   855.62   935.51   938.93
                              949.63  1001.13  1029.68  1086.73  1093.66
                             1164.22  1176.03  1177.61  1196.58  1208.06
                             1261.26  1341.59  1345.43  1357.45  1412.49
                             1473.43  1576.39  1594.37  1641.80  1657.38
                             1704.60  1709.79  1760.44  1777.96  1815.77
                             1877.76  1887.31  1919.38  1960.81  1970.85
                             1988.18  2128.70  2148.14  2222.68  2249.76
                             2357.11  2364.79  2381.73  2384.84  2401.52
                             2411.11  4563.08  4573.68  4575.20  4590.33
                             4609.70  4614.16  4627.01  5106.29  5124.36
                             5246.63  5270.39  5480.00

 Zero-point correction=                           0.222575 (Hartree/Particle)
 Thermal correction to Energy=                    0.236715
 Thermal correction to Enthalpy=                  0.237659
 Thermal correction to Gibbs Free Energy=         0.180937
 Sum of electronic and zero-point Energies=           -724.252823
 Sum of electronic and thermal Energies=              -724.238683
 Sum of electronic and thermal Enthalpies=            -724.237739
 Sum of electronic and thermal Free Energies=         -724.294461

                     E (Thermal)             CV                S
                      KCal/Mol        Cal/Mol-Kelvin    Cal/Mol-Kelvin
 Total                  148.541             56.577            119.383
 Electronic               0.000              0.000              0.000
 Translational            0.889              2.981             42.015
 Rotational               0.889              2.981             32.600
 Vibrational            146.764             50.615             44.768
 Vibration     1          0.593              1.985              6.207
 Vibration     2          0.594              1.982              5.382
 Vibration     3          0.596              1.976              4.653
 Vibration     4          0.613              1.919              2.878
 Vibration     5          0.619              1.901              2.656
 Vibration     6          0.652              1.795              1.878
 Vibration     7          0.665              1.755              1.699
 Vibration     8          0.676              1.723              1.577
 Vibration     9          0.691              1.677              1.426
 Vibration    10          0.702              1.646              1.338
 Vibration    11          0.709              1.627              1.289
 Vibration    12          0.719              1.599              1.220
 Vibration    13          0.737              1.548              1.109
 Vibration    14          0.745              1.525              1.063
 Vibration    15          0.769              1.463              0.951
 Vibration    16          0.786              1.418              0.878
 Vibration    17          0.820              1.333              0.759
 Vibration    18          0.848              1.267              0.677
 Vibration    19          0.870              1.218              0.623
 Vibration    20          0.875              1.206              0.611
 Vibration    21          0.925              1.098              0.506
 Vibration    22          0.949              1.049              0.464
 Vibration    23          0.952              1.043              0.459

 Optimization completed.
    -- Stationary point found.
 Normal termination of Gaussian 16 at Thu Jul 18 05:02:21 2024.
 Gaussian 16:  ES64L-G16RevA.03 25-Dec-2016

 ----------------------------------------------------------------------
 # TD(NStates=10, Root=1) B3LYP/6-31G** SCRF=(Solvent=water) volume pop
 =NPA density=current Geom=AllCheck Guess=Read
 ----------------------------------------------------------------------

 Structure from the checkpoint file:  "JTUXBPXZECVPKS-UHFFFAOYSA-N_conf_0_2.chk"
 ----------------------------------
 JTUXBPXZECVPKS-UHFFFAOYSA-N_conf_0
 ----------------------------------
 Charge =  0 Multiplicity = 1

                         Standard orientation:
 ---------------------------------------------------------------------
 Center     Atomic      Atomic             Coordinates (Angstroms)
 Number     Number       Type             X           Y           Z
 ---------------------------------------------------------------------
      1          8           0        0.909345    1.231163    1.775237
      2          6           0        1.655684    0.633023    0.802442
      3          6           0        2.915992    0.085989    1.047096
      4          6           0        3.659130   -0.508296    0.011156
      5          7           0        4.890863   -1.105867    0.282482
      6          6           0        3.110479   -0.543424   -1.283036
      7          6           0        1.848021   -0.002087   -1.519065
      8          6           0        1.112167    0.583802   -0.493536
      9          8           0       -0.099545    1.204320   -0.770307
     10          6           0       -1.282016    0.555783   -0.442093
     11          6           0       -2.452972    1.307200   -0.573104
     12          6           0       -3.690258    0.735851   -0.289574
     13          6           0       -3.789221   -0.600903    0.136468
     14          7           0       -5.042108   -1.195262    0.359367
     15          6           0       -2.602998   -1.340508    0.263518
     16          6           0       -1.360014   -0.772951   -0.023555
     17          1           0        1.390055    1.192078    2.614085
     18          1           0        3.328348    0.126589    2.052814
     19          1           0        5.508311   -1.176173   -0.516331
     20          1           0        5.378561   -0.728655    1.085131
     21          1           0        3.670895   -0.993842   -2.096648
     22          1           0        1.419861   -0.018940   -2.516584
     23          1           0       -2.382945    2.341288   -0.896012
     24          1           0       -4.592400    1.332473   -0.396943
     25          1           0       -5.760634   -0.537541    0.637743
     26          1           0       -5.014552   -1.971377    1.009873
     27          1           0       -2.650569   -2.376435    0.589483
     28          1           0       -0.458574   -1.366315    0.080717
 ---------------------------------------------------------------------

 SCF Done:  E(RB3LYP) =  -724.475398020     A.U. after    1 cycles

 Excitation energies and oscillator strengths:

 Excited State   1:      Singlet-A      4.3727 eV  283.54 nm  f=0.1326  <S**2>=0.000
      54 -> 61         0.12756
      57 -> 58         0.69068
 This state for optimization and/or second-order correction.
 Total Energy, E(TD-HF/TD-DFT) =  -724.314703152
 Copying the excited state density for this state as the 1-particle RhoCI density.

 Excited State   2:      Singlet-A      4.6336 eV  267.57 nm  f=0.0988  <S**2>=0.000
      55 -> 60        -0.14047
      56 -> 58        -0.40635
      56 -> 59         0.13737
      57 -> 59         0.53170

 Excited State   3:      Singlet-A      4.7051 eV  263.51 nm  f=0.0115  <S**2>=0.000
      56 -> 58         0.52973
      57 -> 59         0.44633

 Excited State   4:      Singlet-A      4.8985 eV  253.11 nm  f=0.0535  <S**2>=0.000
      55 -> 60        -0.14855
      56 -> 58         0.19637
      56 -> 59         0.64719

 Excited State   5:      Singlet-A      5.0650 eV  244.78 nm  f=0.0712  <S**2>=0.000
      57 -> 60         0.69910

 Excited State   6:      Singlet-A      5.3736 eV  230.73 nm  f=0.5500  <S**2>=0.000
      56 -> 60        -0.42320
      56 -> 61         0.10787
      57 -> 61         0.53375

 Excited State   7:      Singlet-A      5.5837 eV  222.05 nm  f=0.1356  <S**2>=0.000
      55 -> 58        -0.17889
      56 -> 60         0.20490
      56 -> 61         0.64054

 Excited State   8:      Singlet-A      5.6131 eV  220.88 nm  f=0.1029  <S**2>=0.000
      54 -> 58        -0.13373
      55 -> 58        -0.30772
      56 -> 60         0.38088
      56 -> 61        -0.26049
      57 -> 61         0.38543

 Excited State   9:      Singlet-A      5.7110 eV  217.10 nm  f=0.0857  <S**2>=0.000
      55 -> 58         0.58473
      55 -> 59         0.25589
      56 -> 60         0.24208
      57 -> 61         0.14882

 Excited State  10:      Singlet-A      6.0730 eV  204.16 nm  f=0.3306  <S**2>=0.000
      55 -> 58        -0.13788
      55 -> 59         0.60785
      55 -> 60        -0.14288
      56 -> 60        -0.21889

 The electronic state is 1-A.
 Alpha  occ. eigenvalues --  -19.18229 -19.17941 -14.33814 -14.33274 -10.25399
 Alpha  occ. eigenvalues --  -10.23975 -10.23410 -10.23252 -10.22243 -10.19250
 Alpha  occ. eigenvalues --  -10.18632 -10.18608 -10.18564 -10.18510 -10.18468
 Alpha  occ. eigenvalues --  -10.18129  -1.07261  -1.05378  -0.91641  -0.90987
 Alpha  occ. eigenvalues --   -0.84225  -0.82618  -0.74763  -0.74319  -0.73757
 Alpha  occ. eigenvalues --   -0.70380  -0.63388  -0.62502  -0.60890  -0.57867
 Alpha  occ. eigenvalues --   -0.55063  -0.54018  -0.51503  -0.50903  -0.49952
 Alpha  occ. eigenvalues --   -0.47704  -0.45828  -0.44986  -0.43926  -0.43443
 Alpha  occ. eigenvalues --   -0.42039  -0.41547  -0.40809  -0.40195  -0.38453
 Alpha  occ. eigenvalues --   -0.38120  -0.36707  -0.36576  -0.35819  -0.34349
 Alpha  occ. eigenvalues --   -0.33552  -0.29260  -0.28132  -0.25100  -0.23359
 Alpha  occ. eigenvalues --   -0.20064  -0.18987
 Alpha virt. eigenvalues --   -0.00502   0.00499   0.01909   0.02703   0.07946
 Alpha virt. eigenvalues --    0.09075   0.09405   0.10724   0.11223   0.13124
 Alpha virt. eigenvalues --    0.13319   0.16534   0.17127   0.17349   0.17560

 Mulliken charges:
               1
     1  O   -0.581593
     2  C    0.308580
     3  C   -0.208746
     4  C    0.268708
     5  N   -0.673566
     6  C   -0.158395
     7  C   -0.151556
     8  C    0.259669
     9  O   -0.555445
    10  C    0.345157
    11  C   -0.180512
    12  C   -0.156727
    13  C    0.259712
    14  N   -0.592898
    15  C   -0.171098
    16  C   -0.160166
    17  H    0.343385
    18  H    0.095280
    19  H    0.280216
    20  H    0.279378
    21  H    0.089616
    22  H    0.096604
    23  H    0.083966
    24  H    0.085600
    25  H    0.306168
    26  H    0.305183
    27  H    0.086893
    28  H    0.096588
 Sum of Mulliken charges =  -0.00000

 Dipole moment (field-independent basis, Debye):
    X=             -0.2904    Y=             -1.9124    Z=              3.7541  Tot=              4.2231
 Quadrupole moment (field-independent basis, Debye-Ang):
   XX=            -38.8348   YY=            -94.2837   ZZ=            -83.2834
   XY=              6.3463   XZ=             -5.8497   YZ=             -0.1876

 Summary of Natural Population Analysis:

                                       Natural Population
                Natural  -----------------------------------------------
    Atom  No    Charge         Core      Valence    Rydberg      Total
 -----------------------------------------------------------------------
      O    1   -0.70716      1.99978     6.69661    0.01077     8.70716
      C    2    0.29844      1.99870     3.68048    0.02237     5.70156
      C    3   -0.39844      1.99897     4.38597    0.01351     6.39844
      C    4    0.18256      1.99900     3.80080    0.01764     5.81744
      N    5   -0.84861      1.99951     5.83737    0.01173     7.84861
      C    6   -0.32510      1.99904     4.31249    0.01357     6.32510
      C    7   -0.28913      1.99903     4.27400    0.01610     6.28913
      C    8    0.19504      1.99863     3.78282    0.02351     5.80496
      O    9   -0.46073      1.99972     6.44924    0.01177     8.46073
      C   10    0.36962      1.99870     3.60930    0.02239     5.63038
      C   11   -0.36541      1.99905     4.34643    0.01993     6.36541
      C   12   -0.33203      1.99906     4.31498    0.01798     6.33203
      C   13    0.18839      1.99895     3.79499    0.01767     5.81161
      N   14   -0.72055      1.99948     5.71078    0.01030     7.72055
      C   15   -0.34073      1.99906     4.32276    0.01891     6.34073
      C   16   -0.36245      1.99903     4.34600    0.01741     6.36245
      H   17    0.51278      0.00000     0.48350    0.00372     0.48722
      H   18    0.24374      0.00000     0.75462    0.00164     0.75626
      H   19    0.41604      0.00000     0.58161    0.00235     0.58396
      H   20    0.41508      0.00000     0.58241    0.00251     0.58492
      H   21    0.24388      0.00000     0.75466    0.00145     0.75612
      H   22    0.25259      0.00000     0.74573    0.00168     0.74741
      H   23    0.24518      0.00000     0.75289    0.00194     0.75482
      H   24    0.23956      0.00000     0.75872    0.00172     0.76044
      H   25    0.42817      0.00000     0.56902    0.00282     0.57183
      H   26    0.42716      0.00000     0.56988    0.00297     0.57284
      H   27    0.23993      0.00000     0.75836    0.00171     0.76007
      H   28    0.25218      0.00000     0.74621    0.00161     0.74782
 =======================================================================
   * Total *   -0.00000     31.98572    81.72261    0.29167   114.00000

 Normal termination of Gaussian 16 at Thu Jul 18 05:21:23 2024.
