 Gaussian 16, Revision A.03,

 -------------------------------------------------------
 # opt=CalcFc B3LYP/6-31G** SCRF=(Solvent=water) scf=xqc
 -------------------------------------------------------

 ----------------------------------
 JTUXBPXZECVPKS-UHFFFAOYSA-N_conf_2
 ----------------------------------
 Symbolic Z-matrix:
 Charge =  0 Multiplicity = 1

 SCF Done:  E(RB3LYP) =  -724.475087402     A.U. after   13 cycles
 SCF Done:  E(RB3LYP) =  -724.478516590     A.U. after   11 cycles
 SCF Done:  E(RB3LYP) =  -724.478696635     A.U. after   10 cycles
 SCF Done:  E(RB3LYP) =  -724.478702828     A.U. after    9 cycles
 SCF Done:  E(RB3LYP) =  -724.478703164     A.U. after    7 cycles
 SCF Done:  E(RB3LYP) =  -724.478702967     A.U. after    7 cycles
 Optimization completed.
    -- Stationary point found.
 Normal termination of Gaussian 16 at Thu Jul 18 04:55:06 2024.

 ----------------------------------------------------------------------
 # freq B3LYP/6-31G** SCRF=(Solvent=water) volume NMR pop=NPA density=c
 urrent Geom=AllCheck Guess=Read
 ----------------------------------------------------------------------

 Structure from the checkpoint file:  "JTUXBPXZECVPKS-UHFFFAOYSA-N_conf_2_1.chk"
 ----------------------------------
 JTUXBPXZECVPKS-UHFFFAOYSA-N_conf_2
 ----------------------------------
 Charge =  0 Multiplicity = 1

 SCF Done:  E(RB3LYP) =  -724.478702967     A.U. after    1 cycles

      1  O    Isotropic =   246.6335   Anisotropy =    83.7167

      2  C    Isotropic =    46.5735   Anisotropy =   126.6039

      3  C    Isotropic =    96.0232   Anisotropy =    99.7665

      4  C    Isotropic =    51.7152   Anisotropy =   155.7087

      5  N    Isotropic =   199.9943   Anisotropy =    74.4695

      6  C    Isotropic =    90.8955   Anisotropy =   116.6722

      7  C    Isotropic =    74.8277   Anisotropy =   148.6277

      8  C    Isotropic =    61.9835   Anisotropy =    84.7105

      9  O    Isotropic =   220.0265   Anisotropy =    96.8609

     10  C    Isotropic =    45.7090   Anisotropy =   106.1213

     11  C    Isotropic =    81.1254   Anisotropy =   149.1136

     12  C    Isotropic =    81.9127   Anisotropy =   129.5205

     13  C    Isotropic =    54.4522   Anisotropy =   155.8298

     14  N    Isotropic =   202.2653   Anisotropy =    74.5119

     15  C    Isotropic =    81.6648   Anisotropy =   130.5793

     16  C    Isotropic =    77.8081   Anisotropy =   139.4802

     17  H    Isotropic =    26.2135   Anisotropy =    14.1473

     18  H    Isotropic =    25.5814   Anisotropy =     5.8254

     19  H    Isotropic =    28.6370   Anisotropy =    12.1958

     20  H    Isotropic =    28.6687   Anisotropy =    12.2993

     21  H    Isotropic =    25.6608   Anisotropy =     4.8396

     22  H    Isotropic =    25.0117   Anisotropy =     7.7198

     23  H    Isotropic =    25.1713   Anisotropy =    10.2876

     24  H    Isotropic =    25.2283   Anisotropy =     6.2352

     25  H    Isotropic =    28.7238   Anisotropy =    12.2821

     26  H    Isotropic =    28.7633   Anisotropy =    12.1347

     27  H    Isotropic =    25.0969   Anisotropy =     5.2060

     28  H    Isotropic =    24.7466   Anisotropy =     5.9067

  Exact polarizability: 280.025 -10.722 164.212 -22.246   7.186 130.663
 Approx polarizability: 306.342 -13.293 211.767 -28.520  10.660 167.599

                      1                      2                      3
                      A                      A                      A
 Frequencies --     15.3521                28.7143                53.8310
 Red. masses --      4.8773                 4.2190                 5.2769
 Frc consts  --      0.0007                 0.0020                 0.0090
 IR Inten    --      1.9326                 1.1583                 1.0154

                      4                      5                      6
                      A                      A                      A
 Frequencies --    135.9274               152.6342               228.2896
 Red. masses --      5.2670                 4.9978                 4.9195
 Frc consts  --      0.0573                 0.0686                 0.1511
 IR Inten    --      5.3765                 1.2739                 5.8617

                      7                      8                      9
                      A                      A                      A
 Frequencies --    238.0361               283.7687               296.5506
 Red. masses --      5.6604                 1.0452                 4.2804
 Frc consts  --      0.1890                 0.0496                 0.2218
 IR Inten    --      5.0736                37.7498                 5.9611

                     10                     11                     12
                      A                      A                      A
 Frequencies --    302.0135               326.3724               346.4541
 Red. masses --      1.1178                 3.9971                 5.2165
 Frc consts  --      0.0601                 0.2509                 0.3689
 IR Inten    --     45.2957                 4.2877                 5.2896

                     13                     14                     15
                      A                      A                      A
 Frequencies --    369.0987               407.5134               424.2582
 Red. masses --      5.6022                 3.4518                 3.2084
 Frc consts  --      0.4497                 0.3377                 0.3402
 IR Inten    --     10.8351                 3.9818                 1.6077

                     16                     17                     18
                      A                      A                      A
 Frequencies --    453.0792               478.9214               493.4632
 Red. masses --      2.6006                 3.4035                 1.4484
 Frc consts  --      0.3145                 0.4599                 0.2078
 IR Inten    --     44.9439                32.7958               112.9239

                     19                     20                     21
                      A                      A                      A
 Frequencies --    513.1683               521.5273               559.9853
 Red. masses --      2.2582                 5.1611                 4.9451
 Frc consts  --      0.3504                 0.8271                 0.9136
 IR Inten    --     55.2491                 5.3517                19.4889

                     22                     23                     24
                      A                      A                      A
 Frequencies --    594.3464               603.3392               638.3356
 Red. masses --      1.6912                 4.9719                 1.6649
 Frc consts  --      0.3520                 1.0663                 0.3997
 IR Inten    --    415.0754                 9.5575               548.8887

                     25                     26                     27
                      A                      A                      A
 Frequencies --    650.1027               656.9946               688.0609
 Red. masses --      5.0655                 2.7499                 4.4076
 Frc consts  --      1.2614                 0.6994                 1.2294
 IR Inten    --     57.3859                90.8469                24.4534

                     28                     29                     30
                      A                      A                      A
 Frequencies --    712.5568               746.4903               764.9374
 Red. masses --      3.6958                 4.4874                 4.4273
 Frc consts  --      1.1056                 1.4733                 1.5263
 IR Inten    --     53.0580                 7.0320                10.5008

                     31                     32                     33
                      A                      A                      A
 Frequencies --    805.6978               817.4960               832.4822
 Red. masses --      1.6240                 1.2606                 3.6824
 Frc consts  --      0.6211                 0.4964                 1.5036
 IR Inten    --     50.3498                 0.8376                21.6050

                     34                     35                     36
                      A                      A                      A
 Frequencies --    833.4951               840.1130               877.7911
 Red. masses --      1.5221                 1.8383                 6.2167
 Frc consts  --      0.6230                 0.7644                 2.8222
 IR Inten    --     48.4118                91.4521                55.6563

                     37                     38                     39
                      A                      A                      A
 Frequencies --    927.1646               935.2897               944.9930
 Red. masses --      1.2819                 1.2748                 1.3027
 Frc consts  --      0.6492                 0.6570                 0.6854
 IR Inten    --      4.0765                 0.8319                 0.1956

                     40                     41                     42
                      A                      A                      A
 Frequencies --    975.1562              1024.3510              1094.3168
 Red. masses --      2.9497                 2.6374                 1.4188
 Frc consts  --      1.6526                 1.6305                 1.0010
 IR Inten    --     48.4795                 9.6462                 4.9281

                     43                     44                     45
                      A                      A                      A
 Frequencies --   1104.3575              1143.3091              1151.5580
 Red. masses --      1.5809                 1.4726                 1.1814
 Frc consts  --      1.1360                 1.1341                 0.9230
 IR Inten    --      6.4208                 3.7228                21.6949

                     46                     47                     48
                      A                      A                      A
 Frequencies --   1181.8668              1196.1527              1207.3746
 Red. masses --      1.3456                 1.2519                 2.4210
 Frc consts  --      1.1074                 1.0553                 2.0794
 IR Inten    --     39.0442                78.7059               135.2585

                     49                     50                     51
                      A                      A                      A
 Frequencies --   1235.8767              1268.5989              1305.5826
 Red. masses --      3.0888                 2.1031                 2.1714
 Frc consts  --      2.7796                 1.9942                 2.1808
 IR Inten    --    656.0965               242.2271                20.7297

                     52                     53                     54
                      A                      A                      A
 Frequencies --   1311.1049              1333.8101              1358.6736
 Red. masses --      2.9052                 1.6446                 4.0811
 Frc consts  --      2.9424                 1.7238                 4.4388
 IR Inten    --     37.2746                14.8251                77.6949

                     55                     56                     57
                      A                      A                      A
 Frequencies --   1366.6636              1390.3225              1479.2607
 Red. masses --      3.6948                 2.6248                 3.0568
 Frc consts  --      4.0660                 2.9893                 3.9410
 IR Inten    --     38.1829                65.8302                 2.7546

                     58                     59                     60
                      A                      A                      A
 Frequencies --   1514.9669              1542.0428              1550.0441
 Red. masses --      3.7283                 2.7407                 2.8700
 Frc consts  --      5.0415                 3.8398                 4.0628
 IR Inten    --     11.3712               684.0268               158.8419

                     61                     62                     63
                      A                      A                      A
 Frequencies --   1634.9857              1643.3981              1655.1349
 Red. masses --      6.5359                 6.9064                 1.2818
 Frc consts  --     10.2940                10.9897                 2.0689
 IR Inten    --     46.1018                76.1207                74.4181

                     64                     65                     66
                      A                      A                      A
 Frequencies --   1656.0620              1672.0305              1677.0884
 Red. masses --      1.2155                 3.6943                 4.6918
 Frc consts  --      1.9641                 6.0851                 7.7750
 IR Inten    --     16.3857                76.6924               142.7221

                     67                     68                     69
                      A                      A                      A
 Frequencies --   3180.8246              3181.9529              3188.3810
 Red. masses --      1.0896                 1.0888                 1.0883
 Frc consts  --      6.4951                 6.4953                 6.5186
 IR Inten    --     25.2819                28.0776                19.4250

                     70                     71                     72
                      A                      A                      A
 Frequencies --   3195.8420              3206.9852              3207.1477
 Red. masses --      1.0911                 1.0939                 1.0945
 Frc consts  --      6.5659                 6.6283                 6.6328
 IR Inten    --     14.8813                13.3807                 8.7528

                     73                     74                     75
                      A                      A                      A
 Frequencies --   3215.4255              3553.2958              3559.5905
 Red. masses --      1.0925                 1.0489                 1.0487
 Frc consts  --      6.6549                 7.8026                 7.8287
 IR Inten    --      6.1147                25.8356                33.1102

                     76                     77                     78
                      A                      A                      A
 Frequencies --   3652.3829              3660.9211              3736.7214
 Red. masses --      1.0976                 1.0981                 1.0649
 Frc consts  --      8.6264                 8.6713                 8.7605
 IR Inten    --     20.4023                22.6285               169.4930

 - Thermochemistry -
 -------------------
 Temperature   298.150 Kelvin.  Pressure   1.00000 Atm.
 Atom     1 has atomic number  8 and mass  15.99491

 Molecular mass:   216.08988 amu.
 Principal axes and moments of inertia in atomic units:
                           1         2         3
     Eigenvalues --  1338.592867286.745387808.34035
           X            1.00000  -0.00177  -0.00069
           Y            0.00178   0.99994   0.01041
           Z            0.00067  -0.01041   0.99995
 This molecule is an asymmetric top.
 Rotational symmetry number  1.
 Warning -- assumption of classical behavior for rotation
           may cause significant error
 Rotational temperatures (Kelvin)      0.06471     0.01189     0.01109
 Rotational constants (GHZ):           1.34824     0.24767     0.23113
 Zero-point vibrational energy     584448.8 (Joules/Mol)
                                  139.68661 (Kcal/Mol)
 Warning -- explicit consideration of  23 degrees of freedom as
           vibrations may cause significant error
 Vibrational temperatures:     22.09    41.31    77.45   195.57   219.61
          (Kelvin)            328.46   342.48   408.28   426.67   434.53
                              469.58   498.47   531.05   586.32   610.41
                              651.88   689.06   709.98   738.33   750.36
                              805.69   855.13   868.07   918.42   935.35
                              945.27   989.97  1025.21  1074.03  1100.57
                             1159.22  1176.19  1197.76  1199.21  1208.74
                             1262.95  1333.98  1345.67  1359.63  1403.03
                             1473.81  1574.48  1588.92  1644.97  1656.84
                             1700.44  1721.00  1737.14  1778.15  1825.23
                             1878.44  1886.39  1919.06  1954.83  1966.32
                             2000.36  2128.33  2179.70  2218.66  2230.17
                             2352.38  2364.48  2381.37  2382.70  2405.68
                             2412.96  4576.50  4578.12  4587.37  4598.10
                             4614.14  4614.37  4626.28  5112.40  5121.46
                             5254.96  5267.25  5376.31

 Zero-point correction=                           0.222605 (Hartree/Particle)
 Thermal correction to Energy=                    0.236712
 Thermal correction to Enthalpy=                  0.237656
 Thermal correction to Gibbs Free Energy=         0.180299
 Sum of electronic and zero-point Energies=           -724.256098
 Sum of electronic and thermal Energies=              -724.241991
 Sum of electronic and thermal Enthalpies=            -724.241047
 Sum of electronic and thermal Free Energies=         -724.298404

                     E (Thermal)             CV                S
                      KCal/Mol        Cal/Mol-Kelvin    Cal/Mol-Kelvin
 Total                  148.539             56.417            120.719
 Electronic               0.000              0.000              0.000
 Translational            0.889              2.981             42.015
 Rotational               0.889              2.981             32.699
 Vibrational            146.762             50.455             46.006
 Vibration     1          0.593              1.986              7.159
 Vibration     2          0.593              1.984              5.916
 Vibration     3          0.596              1.976              4.671
 Vibration     4          0.614              1.917              2.860
 Vibration     5          0.619              1.900              2.639
 Vibration     6          0.651              1.798              1.892
 Vibration     7          0.656              1.782              1.818
 Vibration     8          0.682              1.704              1.511
 Vibration     9          0.690              1.680              1.436
 Vibration    10          0.694              1.670              1.406
 Vibration    11          0.710              1.623              1.278
 Vibration    12          0.724              1.582              1.182
 Vibration    13          0.741              1.536              1.084
 Vibration    14          0.772              1.454              0.935
 Vibration    15          0.786              1.417              0.878
 Vibration    16          0.812              1.354              0.787
 Vibration    17          0.835              1.297              0.713
 Vibration    18          0.849              1.265              0.675
 Vibration    19          0.868              1.221              0.626
 Vibration    20          0.876              1.202              0.606
 Vibration    21          0.916              1.118              0.524
 Vibration    22          0.952              1.044              0.459
 Vibration    23          0.962              1.025              0.444

 Optimization completed.
    -- Stationary point found.
 Normal termination of Gaussian 16 at Thu Jul 18 05:09:05 2024.
 Gaussian 16:  ES64L-G16RevA.03 25-Dec-2016

 ----------------------------------------------------------------------
 # TD(NStates=10, Root=1) B3LYP/6-31G** SCRF=(Solvent=water) volume pop
 =NPA density=current Geom=AllCheck Guess=Read
 ----------------------------------------------------------------------

 Structure from the checkpoint file:  "JTUXBPXZECVPKS-UHFFFAOYSA-N_conf_2_2.chk"
 ----------------------------------
 JTUXBPXZECVPKS-UHFFFAOYSA-N_conf_2
 ----------------------------------
 Charge =  0 Multiplicity = 1

                         Standard orientation:
 ---------------------------------------------------------------------
 Center     Atomic      Atomic             Coordinates (Angstroms)
 Number     Number       Type             X           Y           Z
 ---------------------------------------------------------------------
      1          8           0        1.732540    2.272931   -0.952424
      2          6           0        2.026183    1.071483   -0.379287
      3          6           0        3.274625    0.492370   -0.601712
      4          6           0        3.597659   -0.743645   -0.016385
      5          7           0        4.819645   -1.359458   -0.297704
      6          6           0        2.647704   -1.380789    0.805660
      7          6           0        1.405952   -0.790945    1.033511
      8          6           0        1.086627    0.425952    0.438580
      9          8           0       -0.100760    1.115923    0.678910
     10          6           0       -1.316133    0.520554    0.339444
     11          6           0       -1.454607   -0.426502   -0.675759
     12          6           0       -2.716790   -0.936249   -0.979422
     13          6           0       -3.861626   -0.507400   -0.286179
     14          7           0       -5.135017   -0.971614   -0.641108
     15          6           0       -3.699754    0.452081    0.729381
     16          6           0       -2.440060    0.957102    1.041628
     17          1           0        0.839770    2.514319   -0.653714
     18          1           0        3.987833    1.010162   -1.235898
     19          1           0        5.561970   -0.723262   -0.559763
     20          1           0        5.134892   -2.007980    0.412664
     21          1           0        2.887626   -2.333658    1.267829
     22          1           0        0.677259   -1.276643    1.674944
     23          1           0       -0.584912   -0.771591   -1.223898
     24          1           0       -2.815841   -1.675456   -1.769973
     25          1           0       -5.811661   -0.938734    0.111673
     26          1           0       -5.134838   -1.887288   -1.073543
     27          1           0       -4.568323    0.800580    1.281698
     28          1           0       -2.319096    1.692154    1.831029
 ---------------------------------------------------------------------

 SCF Done:  E(RB3LYP) =  -724.478702967     A.U. after    2 cycles

 Excitation energies and oscillator strengths:

 Excited State   1:      Singlet-A      4.2892 eV  289.06 nm  f=0.0470  <S**2>=0.000
      57 -> 58         0.69266
 This state for optimization and/or second-order correction.
 Total Energy, E(TD-HF/TD-DFT) =  -724.321079424
 Copying the excited state density for this state as the 1-particle RhoCI density.

 Excited State   2:      Singlet-A      4.5897 eV  270.13 nm  f=0.1748  <S**2>=0.000
      55 -> 61         0.10925
      56 -> 58        -0.25953
      57 -> 59         0.62616

 Excited State   3:      Singlet-A      4.7355 eV  261.82 nm  f=0.0138  <S**2>=0.000
      56 -> 58         0.64031
      57 -> 59         0.28310

 Excited State   4:      Singlet-A      4.9773 eV  249.10 nm  f=0.1987  <S**2>=0.000
      56 -> 59        -0.45119
      57 -> 60         0.49574

 Excited State   5:      Singlet-A      5.0433 eV  245.84 nm  f=0.3803  <S**2>=0.000
      56 -> 59         0.48733
      57 -> 60         0.48901

 Excited State   6:      Singlet-A      5.3290 eV  232.66 nm  f=0.0093  <S**2>=0.000
      56 -> 60         0.39423
      57 -> 61         0.57415

 Excited State   7:      Singlet-A      5.5429 eV  223.68 nm  f=0.0615  <S**2>=0.000
      55 -> 58         0.62629
      56 -> 60         0.27531
      57 -> 61        -0.12117

 Excited State   8:      Singlet-A      5.6254 eV  220.40 nm  f=0.0554  <S**2>=0.000
      54 -> 58         0.13812
      55 -> 58        -0.27996
      55 -> 59         0.20836
      56 -> 59        -0.10872
      56 -> 60         0.46230
      56 -> 61        -0.15268
      57 -> 61        -0.31344

 Excited State   9:      Singlet-A      5.7241 eV  216.60 nm  f=0.2698  <S**2>=0.000
      55 -> 59         0.25222
      56 -> 61         0.64198

 Excited State  10:      Singlet-A      6.0206 eV  205.93 nm  f=0.3865  <S**2>=0.000
      55 -> 59         0.58223
      55 -> 60        -0.14759
      56 -> 60        -0.15386
      56 -> 61        -0.22263
      57 -> 61         0.13569

 The electronic state is 1-A.
 Alpha  occ. eigenvalues --  -19.18898 -19.17738 -14.33693 -14.33511 -10.25038
 Alpha  occ. eigenvalues --  -10.24286 -10.23621 -10.23098 -10.22641 -10.19421
 Alpha  occ. eigenvalues --  -10.19079 -10.18975 -10.18739 -10.18736 -10.18216
 Alpha  occ. eigenvalues --  -10.18179  -1.07807  -1.05084  -0.91504  -0.91293
 Alpha  occ. eigenvalues --   -0.84356  -0.82827  -0.74998  -0.74454  -0.73962
 Alpha  occ. eigenvalues --   -0.70360  -0.63254  -0.61927  -0.61292  -0.58806
 Alpha  occ. eigenvalues --   -0.55088  -0.53503  -0.51375  -0.51165  -0.50347
 Alpha  occ. eigenvalues --   -0.48371  -0.45704  -0.44587  -0.44147  -0.43056
 Alpha  occ. eigenvalues --   -0.42501  -0.41998  -0.41024  -0.39736  -0.38838
 Alpha  occ. eigenvalues --   -0.38573  -0.37298  -0.36482  -0.35810  -0.34543
 Alpha  occ. eigenvalues --   -0.33649  -0.30076  -0.28200  -0.25399  -0.23119
 Alpha  occ. eigenvalues --   -0.20470  -0.18943
 Alpha virt. eigenvalues --   -0.00787   0.00455   0.01614   0.02654   0.08090
 Alpha virt. eigenvalues --    0.09375   0.09834   0.10875   0.11761   0.13143
 Alpha virt. eigenvalues --    0.13768   0.16395   0.16910   0.17138   0.17370

 Mulliken charges:
               1
     1  O   -0.574362
     2  C    0.294159
     3  C   -0.172856
     4  C    0.272619
     5  N   -0.645832
     6  C   -0.145497
     7  C   -0.132039
     8  C    0.286524
     9  O   -0.579365
    10  C    0.312721
    11  C   -0.172560
    12  C   -0.183822
    13  C    0.266013
    14  N   -0.626519
    15  C   -0.179952
    16  C   -0.173561
    17  H    0.347123
    18  H    0.103943
    19  H    0.292989
    20  H    0.293376
    21  H    0.105783
    22  H    0.115658
    23  H    0.084967
    24  H    0.074283
    25  H    0.291521
    26  H    0.291287
    27  H    0.073281
    28  H    0.080118
 Sum of Mulliken charges =  -0.00000

 Dipole moment (field-independent basis, Debye):
    X=              2.3341    Y=             -3.4789    Z=              1.4085  Tot=              4.4198
 Quadrupole moment (field-independent basis, Debye-Ang):
   XX=            -47.0174   YY=            -87.2040   ZZ=            -94.8369
   XY=              2.4837   XZ=              1.5711   YZ=             -0.2872

 Summary of Natural Population Analysis:

                                       Natural Population
                Natural  -----------------------------------------------
    Atom  No    Charge         Core      Valence    Rydberg      Total
 -----------------------------------------------------------------------
      O    1   -0.69418      1.99979     6.68349    0.01090     8.69418
      C    2    0.30279      1.99871     3.67520    0.02330     5.69721
      C    3   -0.37050      1.99897     4.35697    0.01456     6.37050
      C    4    0.19739      1.99900     3.78630    0.01731     5.80261
      N    5   -0.80660      1.99950     5.79587    0.01124     7.80660
      C    6   -0.30428      1.99905     4.29103    0.01420     6.30428
      C    7   -0.29499      1.99902     4.27932    0.01664     6.29499
      C    8    0.23869      1.99864     3.74123    0.02144     5.76131
      O    9   -0.48274      1.99972     6.47149    0.01153     8.48274
      C   10    0.32073      1.99868     3.65868    0.02191     5.67927
      C   11   -0.38503      1.99902     4.36778    0.01822     6.38503
      C   12   -0.35499      1.99906     4.33796    0.01796     6.35499
      C   13    0.18616      1.99897     3.79709    0.01778     5.81384
      N   14   -0.77296      1.99949     5.76244    0.01104     7.77296
      C   15   -0.36117      1.99906     4.34453    0.01758     6.36117
      C   16   -0.34675      1.99904     4.32928    0.01842     6.34675
      H   17    0.51551      0.00000     0.47968    0.00481     0.48449
      H   18    0.25536      0.00000     0.74287    0.00177     0.74464
      H   19    0.42313      0.00000     0.57438    0.00249     0.57687
      H   20    0.42364      0.00000     0.57406    0.00230     0.57636
      H   21    0.25125      0.00000     0.74732    0.00143     0.74875
      H   22    0.26282      0.00000     0.73576    0.00142     0.73718
      H   23    0.24566      0.00000     0.75279    0.00155     0.75434
      H   24    0.23417      0.00000     0.76418    0.00165     0.76583
      H   25    0.42021      0.00000     0.57689    0.00290     0.57979
      H   26    0.41999      0.00000     0.57711    0.00291     0.58001
      H   27    0.23407      0.00000     0.76431    0.00162     0.76593
      H   28    0.24263      0.00000     0.75554    0.00183     0.75737
 =======================================================================
   * Total *   -0.00000     31.98572    81.72358    0.29071   114.00000

 Normal termination of Gaussian 16 at Thu Jul 18 05:24:42 2024.
