 Gaussian 16, Revision A.03,

 -------------------------------------------------------
 # opt=CalcFc B3LYP/6-31G** SCRF=(Solvent=water) scf=xqc
 -------------------------------------------------------

 ----------------------------------
 RNLHGQLZWXBQNY-SCZZXKLOSA-N_conf_2
 ----------------------------------
 Symbolic Z-matrix:
 Charge =  0 Multiplicity = 1

 SCF Done:  E(RB3LYP) =  -503.853074784     A.U. after   11 cycles
 SCF Done:  E(RB3LYP) =  -503.855971333     A.U. after    9 cycles
 SCF Done:  E(RB3LYP) =  -503.856297977     A.U. after   11 cycles
 SCF Done:  E(RB3LYP) =  -503.856362095     A.U. after    9 cycles
 SCF Done:  E(RB3LYP) =  -503.856371173     A.U. after    8 cycles
 SCF Done:  E(RB3LYP) =  -503.856371254     A.U. after    5 cycles
 Optimization completed.
    -- Stationary point found.
 Normal termination of Gaussian 16 at Thu Jul 18 22:48:54 2024.

 ----------------------------------------------------------------------
 # freq B3LYP/6-31G** SCRF=(Solvent=water) volume NMR pop=NPA density=c
 urrent Geom=AllCheck Guess=Read
 ----------------------------------------------------------------------

 Structure from the checkpoint file:  "RNLHGQLZWXBQNY-SCZZXKLOSA-N_conf_2_1.chk"
 ----------------------------------
 RNLHGQLZWXBQNY-SCZZXKLOSA-N_conf_2
 ----------------------------------
 Charge =  0 Multiplicity = 1

 SCF Done:  E(RB3LYP) =  -503.856371254     A.U. after    1 cycles

      1  N    Isotropic =   216.6849   Anisotropy =    48.6971

      2  C    Isotropic =   144.9958   Anisotropy =    32.9379

      3  C    Isotropic =   145.1064   Anisotropy =    30.1547

      4  C    Isotropic =   151.0322   Anisotropy =     9.1133

      5  C    Isotropic =   136.5688   Anisotropy =    35.9988

      6  N    Isotropic =   240.6329   Anisotropy =    22.1671

      7  C    Isotropic =   148.0183   Anisotropy =    23.1498

      8  C    Isotropic =   156.0055   Anisotropy =     4.8904

      9  C    Isotropic =   156.5254   Anisotropy =    50.8484

     10  C    Isotropic =   144.3106   Anisotropy =    30.8492

     11  C    Isotropic =   163.3753   Anisotropy =    37.3864

     12  C    Isotropic =   164.5360   Anisotropy =    37.2007

     13  H    Isotropic =    31.7056   Anisotropy =    11.1543

     14  H    Isotropic =    31.0713   Anisotropy =    14.5742

     15  H    Isotropic =    28.6976   Anisotropy =     3.4795

     16  H    Isotropic =    29.9768   Anisotropy =     3.9085

     17  H    Isotropic =    30.6834   Anisotropy =     6.0699

     18  H    Isotropic =    29.0866   Anisotropy =     6.4433

     19  H    Isotropic =    29.8078   Anisotropy =     6.3013

     20  H    Isotropic =    31.4190   Anisotropy =    13.3420

     21  H    Isotropic =    31.1148   Anisotropy =    16.9622

     22  H    Isotropic =    30.3309   Anisotropy =     6.3912

     23  H    Isotropic =    30.8745   Anisotropy =     5.3588

     24  H    Isotropic =    30.8052   Anisotropy =     9.4642

     25  H    Isotropic =    30.6255   Anisotropy =     9.0090

     26  H    Isotropic =    30.9894   Anisotropy =     8.4546

     27  H    Isotropic =    30.9177   Anisotropy =     4.8157

     28  H    Isotropic =    30.1298   Anisotropy =     5.9545

     29  H    Isotropic =    30.0218   Anisotropy =     5.9126

     30  H    Isotropic =    30.9463   Anisotropy =     9.6633

     31  H    Isotropic =    30.8930   Anisotropy =     8.5338

     32  H    Isotropic =    31.1286   Anisotropy =     8.6620

     33  H    Isotropic =    31.2794   Anisotropy =     9.6416

     34  H    Isotropic =    30.1021   Anisotropy =     6.0928

  Exact polarizability: 158.450  -2.985 157.311  -1.059  -0.236 150.104
 Approx polarizability: 163.327  -1.908 165.919   0.492   0.274 165.526

                      1                      2                      3
                      A                      A                      A
 Frequencies --     99.0392               117.5306               139.8218
 Red. masses --      3.1836                 2.6899                 2.2096
 Frc consts  --      0.0184                 0.0219                 0.0255
 IR Inten    --      0.8819                 4.1067                 4.9563

                      4                      5                      6
                      A                      A                      A
 Frequencies --    157.0458               193.6417               212.4054
 Red. masses --      2.9141                 1.0692                 1.1736
 Frc consts  --      0.0423                 0.0236                 0.0312
 IR Inten    --      2.0629                 0.0806                57.3890

                      7                      8                      9
                      A                      A                      A
 Frequencies --    222.6834               248.7277               254.5516
 Red. masses --      1.8637                 1.3127                 1.5409
 Frc consts  --      0.0545                 0.0478                 0.0588
 IR Inten    --     13.0313                 2.8837                23.2984

                     10                     11                     12
                      A                      A                      A
 Frequencies --    263.1192               277.1793               294.8315
 Red. masses --      1.5764                 1.5806                 1.3896
 Frc consts  --      0.0643                 0.0715                 0.0712
 IR Inten    --     16.1638                30.7142                 3.9013

                     13                     14                     15
                      A                      A                      A
 Frequencies --    305.6825               322.1697               359.9897
 Red. masses --      2.4140                 2.0329                 2.4357
 Frc consts  --      0.1329                 0.1243                 0.1860
 IR Inten    --     11.9132                 5.1988                 3.1960

                     16                     17                     18
                      A                      A                      A
 Frequencies --    366.2481               419.5882               445.8233
 Red. masses --      2.6159                 2.2108                 2.7303
 Frc consts  --      0.2067                 0.2293                 0.3197
 IR Inten    --      2.9550                 1.3371                 1.2098

                     19                     20                     21
                      A                      A                      A
 Frequencies --    456.6751               480.8312               495.8938
 Red. masses --      2.0451                 2.3269                 2.4988
 Frc consts  --      0.2513                 0.3170                 0.3620
 IR Inten    --      0.9007                 3.8359                 3.7637

                     22                     23                     24
                      A                      A                      A
 Frequencies --    516.9688               566.6245               773.1751
 Red. masses --      2.9490                 2.9065                 3.1098
 Frc consts  --      0.4644                 0.5498                 1.0953
 IR Inten    --      2.0048                11.2326                 6.9963

                     25                     26                     27
                      A                      A                      A
 Frequencies --    784.8996               858.8515               866.6105
 Red. masses --      2.8175                 1.4681                 2.1779
 Frc consts  --      1.0227                 0.6380                 0.9637
 IR Inten    --      4.9573               103.9699                 5.6627

                     28                     29                     30
                      A                      A                      A
 Frequencies --    876.9500               891.0566               911.4125
 Red. masses --      1.5701                 1.6739                 2.1381
 Frc consts  --      0.7114                 0.7831                 1.0464
 IR Inten    --      4.0974                 4.4924                10.8793

                     31                     32                     33
                      A                      A                      A
 Frequencies --    918.9819               932.9828               945.9872
 Red. masses --      1.8268                 1.7577                 1.5137
 Frc consts  --      0.9090                 0.9015                 0.7981
 IR Inten    --    140.0312               116.7893                 7.5271

                     34                     35                     36
                      A                      A                      A
 Frequencies --    958.3931               975.7250               994.7817
 Red. masses --      1.8137                 1.5843                 1.5342
 Frc consts  --      0.9815                 0.8887                 0.8945
 IR Inten    --      4.0052                38.7064                10.1139

                     37                     38                     39
                      A                      A                      A
 Frequencies --    997.0181              1039.6963              1056.8794
 Red. masses --      1.8359                 1.3863                 1.9295
 Frc consts  --      1.0753                 0.8829                 1.2698
 IR Inten    --      9.9540                 1.7382                 3.0414

                     40                     41                     42
                      A                      A                      A
 Frequencies --   1082.0075              1091.3846              1124.0394
 Red. masses --      1.9911                 2.0705                 1.7116
 Frc consts  --      1.3734                 1.4530                 1.2741
 IR Inten    --     16.2622                13.8067                 6.3022

                     43                     44                     45
                      A                      A                      A
 Frequencies --   1128.8673              1152.3582              1165.6521
 Red. masses --      1.7964                 1.5317                 1.4309
 Frc consts  --      1.3488                 1.1984                 1.1455
 IR Inten    --     14.2064                10.0402                 6.0875

                     46                     47                     48
                      A                      A                      A
 Frequencies --   1185.1813              1225.1348              1253.8538
 Red. masses --      1.6366                 2.2463                 2.2650
 Frc consts  --      1.3545                 1.9865                 2.0980
 IR Inten    --      8.5979                 4.9270                10.1871

                     49                     50                     51
                      A                      A                      A
 Frequencies --   1270.8284              1287.3753              1302.8741
 Red. masses --      2.5358                 1.8350                 1.4666
 Frc consts  --      2.4129                 1.7918                 1.4668
 IR Inten    --      7.9868                 7.0761                 3.4598

                     52                     53                     54
                      A                      A                      A
 Frequencies --   1331.8492              1347.5877              1367.0423
 Red. masses --      1.4270                 1.4249                 1.4310
 Frc consts  --      1.4913                 1.5246                 1.5757
 IR Inten    --      3.5902                 5.3459                 2.6331

                     55                     56                     57
                      A                      A                      A
 Frequencies --   1371.7190              1376.7312              1391.4534
 Red. masses --      1.3159                 1.3787                 1.3562
 Frc consts  --      1.4588                 1.5397                 1.5471
 IR Inten    --      8.1896                 6.2941                14.8126

                     58                     59                     60
                      A                      A                      A
 Frequencies --   1408.8723              1415.4986              1427.9872
 Red. masses --      1.2737                 1.3502                 1.2674
 Frc consts  --      1.4895                 1.5939                 1.5228
 IR Inten    --      3.7531                 3.5600                 4.7407

                     61                     62                     63
                      A                      A                      A
 Frequencies --   1430.5613              1432.8435              1484.3902
 Red. masses --      1.2415                 1.3763                 1.0823
 Frc consts  --      1.4970                 1.6648                 1.4050
 IR Inten    --     15.3003                 8.2604                 0.2220

                     64                     65                     66
                      A                      A                      A
 Frequencies --   1485.8757              1492.6892              1496.6026
 Red. masses --      1.0779                 1.0472                 1.0713
 Frc consts  --      1.4022                 1.3747                 1.4137
 IR Inten    --      1.3183                 1.5067                 0.3999

                     67                     68                     69
                      A                      A                      A
 Frequencies --   1497.3396              1503.2356              1506.8586
 Red. masses --      1.0787                 1.0852                 1.0648
 Frc consts  --      1.4249                 1.4448                 1.4245
 IR Inten    --      0.1320                 3.0126                 9.4696

                     70                     71                     72
                      A                      A                      A
 Frequencies --   1507.9601              1512.6850              1524.3879
 Red. masses --      1.0583                 1.0649                 1.0553
 Frc consts  --      1.4179                 1.4356                 1.4449
 IR Inten    --      1.7014                 7.4902                13.2682

                     73                     74                     75
                      A                      A                      A
 Frequencies --   1655.3945              1661.0453              2964.4500
 Red. masses --      1.0889                 1.0855                 1.0705
 Frc consts  --      1.7581                 1.7646                 5.5426
 IR Inten    --     35.2204                39.7817               124.7550

                     76                     77                     78
                      A                      A                      A
 Frequencies --   3000.1793              3010.4235              3016.5440
 Red. masses --      1.0656                 1.0612                 1.0598
 Frc consts  --      5.6509                 5.6664                 5.6817
 IR Inten    --     49.1213               102.5606                30.8918

                     79                     80                     81
                      A                      A                      A
 Frequencies --   3026.6456              3031.6350              3035.6274
 Red. masses --      1.0368                 1.0809                 1.0422
 Frc consts  --      5.5960                 5.8532                 5.6587
 IR Inten    --     55.8786                29.8088                52.4368

                     82                     83                     84
                      A                      A                      A
 Frequencies --   3040.5354              3059.2163              3060.1076
 Red. masses --      1.0428                 1.0917                 1.0981
 Frc consts  --      5.6801                 6.0196                 6.0582
 IR Inten    --     56.0480                46.6345                65.2469

                     85                     86                     87
                      A                      A                      A
 Frequencies --   3061.7779              3066.6681              3093.8451
 Red. masses --      1.0998                 1.0993                 1.1015
 Frc consts  --      6.0745                 6.0909                 6.2122
 IR Inten    --     26.5325               120.2910                55.3563

                     88                     89                     90
                      A                      A                      A
 Frequencies --   3094.4331              3098.8126              3100.3448
 Red. masses --      1.1021                 1.1017                 1.1021
 Frc consts  --      6.2175                 6.2333                 6.2413
 IR Inten    --     13.7770               120.3432                88.5430

                     91                     92                     93
                      A                      A                      A
 Frequencies --   3132.1879              3148.4728              3455.0943
 Red. masses --      1.0981                 1.0939                 1.0506
 Frc consts  --      6.3475                 6.3887                 7.3891
 IR Inten    --     49.0314                57.9555                 3.9785

                     94                     95                     96
                      A                      A                      A
 Frequencies --   3501.0700              3533.5503              3576.0025
 Red. masses --      1.0510                 1.0906                 1.0920
 Frc consts  --      7.5903                 8.0233                 8.2277
 IR Inten    --      0.3944                 1.0307                 0.4934

 - Thermochemistry -
 -------------------
 Temperature   298.150 Kelvin.  Pressure   1.00000 Atm.
 Atom     1 has atomic number  7 and mass  14.00307

 Molecular mass:   170.17830 amu.
 Principal axes and moments of inertia in atomic units:
                           1         2         3
     Eigenvalues --  1786.323762364.029772938.49631
           X            0.99923  -0.03861  -0.00671
           Y            0.03865   0.99924   0.00562
           Z            0.00649  -0.00587   0.99996
 This molecule is an asymmetric top.
 Rotational symmetry number  1.
 Warning -- assumption of classical behavior for rotation
           may cause significant error
 Rotational temperatures (Kelvin)      0.04849     0.03664     0.02948
 Rotational constants (GHZ):           1.01031     0.76342     0.61417
 Zero-point vibrational energy     831454.1 (Joules/Mol)
                                  198.72229 (Kcal/Mol)
 Warning -- explicit consideration of  23 degrees of freedom as
           vibrations may cause significant error
 Vibrational temperatures:    142.50   169.10   201.17   225.95   278.61
          (Kelvin)            305.60   320.39   357.86   366.24   378.57
                              398.80   424.20   439.81   463.53   517.94
                              526.95   603.69   641.44   657.05   691.81
                              713.48   743.80   815.25  1112.43  1129.30
                             1235.70  1246.86  1261.74  1282.03  1311.32
                             1322.21  1342.35  1361.06  1378.91  1403.85
                             1431.27  1434.49  1495.89  1520.61  1556.77
                             1570.26  1617.24  1624.19  1657.99  1677.11
                             1705.21  1762.70  1804.02  1828.44  1852.25
                             1874.55  1916.23  1938.88  1966.87  1973.60
                             1980.81  2001.99  2027.05  2036.59  2054.56
                             2058.26  2061.54  2135.71  2137.84  2147.65
                             2153.28  2154.34  2162.82  2168.03  2169.62
                             2176.42  2193.25  2381.74  2389.87  4265.18
                             4316.59  4331.33  4340.13  4354.67  4361.85
                             4367.59  4374.65  4401.53  4402.81  4405.22
                             4412.25  4451.35  4452.20  4458.50  4460.70
                             4506.52  4529.95  4971.11  5037.26  5083.99
                             5145.07

 Zero-point correction=                           0.316684 (Hartree/Particle)
 Thermal correction to Energy=                    0.330553
 Thermal correction to Enthalpy=                  0.331498
 Thermal correction to Gibbs Free Energy=         0.278602
 Sum of electronic and zero-point Energies=           -503.539687
 Sum of electronic and thermal Energies=              -503.525818
 Sum of electronic and thermal Enthalpies=            -503.524874
 Sum of electronic and thermal Free Energies=         -503.577769

                     E (Thermal)             CV                S
                      KCal/Mol        Cal/Mol-Kelvin    Cal/Mol-Kelvin
 Total                  207.425             55.467            111.327
 Electronic               0.000              0.000              0.000
 Translational            0.889              2.981             41.303
 Rotational               0.889              2.981             30.896
 Vibrational            205.648             49.505             39.129
 Vibration     1          0.604              1.950              3.473
 Vibration     2          0.608              1.935              3.141
 Vibration     3          0.615              1.913              2.806
 Vibration     4          0.621              1.895              2.585
 Vibration     5          0.635              1.849              2.193
 Vibration     6          0.643              1.822              2.023
 Vibration     7          0.648              1.807              1.937
 Vibration     8          0.662              1.765              1.740
 Vibration     9          0.665              1.755              1.699
 Vibration    10          0.670              1.740              1.641
 Vibration    11          0.678              1.716              1.551
 Vibration    12          0.689              1.683              1.446
 Vibration    13          0.696              1.663              1.386
 Vibration    14          0.707              1.631              1.299
 Vibration    15          0.734              1.555              1.122
 Vibration    16          0.739              1.542              1.095
 Vibration    17          0.782              1.428              0.893
 Vibration    18          0.805              1.370              0.809
 Vibration    19          0.815              1.346              0.776
 Vibration    20          0.837              1.293              0.708
 Vibration    21          0.851              1.259              0.668
 Vibration    22          0.872              1.212              0.617
 Vibration    23          0.923              1.103              0.511

 Optimization completed.
    -- Stationary point found.
 Normal termination of Gaussian 16 at Thu Jul 18 23:05:59 2024.
 Gaussian 16:  ES64L-G16RevA.03 25-Dec-2016

 ----------------------------------------------------------------------
 # TD(NStates=10, Root=1) B3LYP/6-31G** SCRF=(Solvent=water) volume pop
 =NPA density=current Geom=AllCheck Guess=Read
 ----------------------------------------------------------------------

 Structure from the checkpoint file:  "RNLHGQLZWXBQNY-SCZZXKLOSA-N_conf_2_2.chk"
 ----------------------------------
 RNLHGQLZWXBQNY-SCZZXKLOSA-N_conf_2
 ----------------------------------
 Charge =  0 Multiplicity = 1

                         Standard orientation:
 ---------------------------------------------------------------------
 Center     Atomic      Atomic             Coordinates (Angstroms)
 Number     Number       Type             X           Y           Z
 ---------------------------------------------------------------------
      1          7           0        1.107928    2.960050   -0.381873
      2          6           0        0.751776    1.618601    0.122155
      3          6           0       -0.745248    1.286891   -0.009263
      4          6           0       -1.135568   -0.128494    0.476279
      5          6           0       -2.591729   -0.442616    0.028236
      6          7           0       -2.785329   -0.466652   -1.430236
      7          6           0       -0.179695   -1.173396   -0.158871
      8          6           0        1.347432   -0.884408   -0.139967
      9          6           0        2.024809   -1.851506   -1.133116
     10          6           0        1.594199    0.568097   -0.611912
     11          6           0        1.991107   -1.125752    1.242626
     12          6           0       -1.152659   -0.190318    2.018575
     13          1           0        0.810902    3.024284   -1.356636
     14          1           0        0.540767    3.652420    0.107207
     15          1           0        1.028927    1.614572    1.184386
     16          1           0       -1.023766    1.374441   -1.067599
     17          1           0       -1.335659    2.036504    0.537050
     18          1           0       -2.903744   -1.382903    0.513445
     19          1           0       -3.239099    0.344211    0.434015
     20          1           0       -2.568655   -1.392307   -1.791290
     21          1           0       -3.771634   -0.325584   -1.634189
     22          1           0       -0.458135   -1.253899   -1.216990
     23          1           0       -0.368291   -2.160203    0.286979
     24          1           0        3.105252   -1.672510   -1.179158
     25          1           0        1.872463   -2.894792   -0.832573
     26          1           0        1.620736   -1.731244   -2.144518
     27          1           0        1.354591    0.634628   -1.684451
     28          1           0        2.657834    0.818995   -0.514790
     29          1           0        1.668033   -0.409820    2.000545
     30          1           0        3.082092   -1.049000    1.168256
     31          1           0        1.753288   -2.129702    1.612085
     32          1           0       -1.325715   -1.213737    2.370358
     33          1           0       -1.960724    0.437611    2.413044
     34          1           0       -0.224205    0.161653    2.471130
 ---------------------------------------------------------------------

 SCF Done:  E(RB3LYP) =  -503.856371254     A.U. after    1 cycles

 Excitation energies and oscillator strengths:

 Excited State   1:      Singlet-A      7.2862 eV  170.16 nm  f=0.0163  <S**2>=0.000
      47 -> 49        -0.18434
      47 -> 50        -0.30018
      48 -> 49         0.53101
      48 -> 50         0.26182
      48 -> 51         0.11203
 This state for optimization and/or second-order correction.
 Total Energy, E(TD-HF/TD-DFT) =  -503.588606507
 Copying the excited state density for this state as the 1-particle RhoCI density.

 Excited State   2:      Singlet-A      7.4210 eV  167.07 nm  f=0.0303  <S**2>=0.000
      47 -> 49        -0.30401
      47 -> 51        -0.20432
      48 -> 49        -0.27572
      48 -> 50         0.41752
      48 -> 51        -0.31642

 Excited State   3:      Singlet-A      7.7091 eV  160.83 nm  f=0.0116  <S**2>=0.000
      47 -> 50        -0.18204
      47 -> 51         0.22764
      48 -> 49        -0.34089
      48 -> 50         0.18527
      48 -> 51         0.49889

 Excited State   4:      Singlet-A      7.9098 eV  156.75 nm  f=0.0069  <S**2>=0.000
      47 -> 49         0.59312
      48 -> 50         0.35439

 Excited State   5:      Singlet-A      8.0271 eV  154.46 nm  f=0.0070  <S**2>=0.000
      47 -> 50         0.50912
      48 -> 49         0.14591
      48 -> 50         0.23155
      48 -> 51         0.15616
      48 -> 52         0.31613
      48 -> 55         0.11774

 Excited State   6:      Singlet-A      8.2248 eV  150.74 nm  f=0.0367  <S**2>=0.000
      47 -> 50        -0.26946
      48 -> 50        -0.16676
      48 -> 52         0.59897
      48 -> 53         0.11392

 Excited State   7:      Singlet-A      8.3685 eV  148.16 nm  f=0.0049  <S**2>=0.000
      47 -> 51         0.61561
      47 -> 52         0.11257
      48 -> 51        -0.31300

 Excited State   8:      Singlet-A      8.4862 eV  146.10 nm  f=0.0095  <S**2>=0.000
      47 -> 50        -0.10401
      47 -> 52         0.51746
      47 -> 53         0.19337
      48 -> 53        -0.33045
      48 -> 57        -0.12604

 Excited State   9:      Singlet-A      8.6332 eV  143.61 nm  f=0.0408  <S**2>=0.000
      47 -> 52         0.40538
      47 -> 53        -0.20519
      47 -> 54         0.13259
      48 -> 53         0.42344
      48 -> 54        -0.19181
      48 -> 56         0.11806

 Excited State  10:      Singlet-A      8.8727 eV  139.74 nm  f=0.1162  <S**2>=0.000
      46 -> 49         0.67700
      48 -> 54        -0.13712
      48 -> 55        -0.10149

 The electronic state is 1-A.
 Alpha  occ. eigenvalues --  -14.30940 -14.30637 -10.20122 -10.19841 -10.19025
 Alpha  occ. eigenvalues --  -10.18648 -10.16880 -10.16844 -10.16642 -10.16626
 Alpha  occ. eigenvalues --  -10.16584 -10.16359  -0.88159  -0.87314  -0.82162
 Alpha  occ. eigenvalues --   -0.77951  -0.72094  -0.68174  -0.67055  -0.66621
 Alpha  occ. eigenvalues --   -0.64638  -0.58047  -0.54678  -0.51407  -0.48180
 Alpha  occ. eigenvalues --   -0.47034  -0.46324  -0.45030  -0.43973  -0.42924
 Alpha  occ. eigenvalues --   -0.42311  -0.40885  -0.40791  -0.38733  -0.37974
 Alpha  occ. eigenvalues --   -0.37054  -0.36333  -0.35608  -0.35501  -0.33791
 Alpha  occ. eigenvalues --   -0.33034  -0.32159  -0.31616  -0.30244  -0.29367
 Alpha  occ. eigenvalues --   -0.28467  -0.23976  -0.22743
 Alpha virt. eigenvalues --    0.07503   0.08759   0.09581   0.10377   0.12398
 Alpha virt. eigenvalues --    0.12840   0.13221   0.14408   0.14967   0.16177
 Alpha virt. eigenvalues --    0.16277   0.17679   0.17797   0.18715   0.18840

 Mulliken charges:
               1
     1  N   -0.565576
     2  C    0.027310
     3  C   -0.135797
     4  C    0.029177
     5  C   -0.067406
     6  N   -0.212089
     7  C   -0.100432
     8  C    0.031457
     9  C   -0.303423
    10  C   -0.132369
    11  C   -0.294393
    12  C   -0.299763
    13  H    0.245697
    14  H    0.244898
    15  H    0.095093
    16  H    0.071948
    17  H    0.055497
    18  H    0.119337
    19  H    0.055531
    20  H    0.083465
    21  H    0.072463
    22  H    0.017267
    23  H    0.031133
    24  H    0.089211
    25  H    0.091403
    26  H    0.087647
    27  H    0.066277
    28  H    0.069985
    29  H    0.093632
    30  H    0.077984
    31  H    0.084841
    32  H    0.082168
    33  H    0.079289
    34  H    0.108534
 Sum of Mulliken charges =  -0.00000

 Dipole moment (field-independent basis, Debye):
    X=             -2.1667    Y=              1.1511    Z=              0.0210  Tot=              2.4536
 Quadrupole moment (field-independent basis, Debye-Ang):
   XX=            -83.1050   YY=            -78.7561   ZZ=            -80.1464
   XY=             -1.4950   XZ=              0.0494   YZ=             -1.2226

 Summary of Natural Population Analysis:

                                       Natural Population
                Natural  -----------------------------------------------
    Atom  No    Charge         Core      Valence    Rydberg      Total
 -----------------------------------------------------------------------
      N    1   -0.81608      1.99962     5.80221    0.01425     7.81608
      C    2   -0.05762      1.99918     4.04120    0.01724     6.05762
      C    3   -0.47542      1.99920     4.46061    0.01561     6.47542
      C    4   -0.03923      1.99910     4.02628    0.01385     6.03923
      C    5   -0.32577      1.99918     4.30649    0.02011     6.32577
      N    6   -0.49921      1.99941     5.48165    0.01815     7.49921
      C    7   -0.47346      1.99919     4.45651    0.01776     6.47346
      C    8   -0.04722      1.99913     4.03491    0.01318     6.04722
      C    9   -0.67978      1.99939     4.67027    0.01013     6.67978
      C   10   -0.47461      1.99922     4.45977    0.01563     6.47461
      C   11   -0.68224      1.99937     4.67320    0.00967     6.68224
      C   12   -0.69011      1.99937     4.68036    0.01038     6.69011
      H   13    0.37573      0.00000     0.61476    0.00951     0.62427
      H   14    0.37875      0.00000     0.61055    0.01070     0.62125
      H   15    0.23347      0.00000     0.76048    0.00605     0.76653
      H   16    0.22427      0.00000     0.76571    0.01002     0.77573
      H   17    0.21830      0.00000     0.76596    0.01574     0.78170
      H   18    0.25898      0.00000     0.71758    0.02343     0.74102
      H   19    0.19396      0.00000     0.77712    0.02893     0.80604
      H   20    0.25506      0.00000     0.68018    0.06476     0.74494
      H   21    0.23625      0.00000     0.69564    0.06811     0.76375
      H   22    0.18627      0.00000     0.79228    0.02145     0.81373
      H   23    0.21047      0.00000     0.77139    0.01814     0.78953
      H   24    0.22918      0.00000     0.76727    0.00355     0.77082
      H   25    0.23126      0.00000     0.76575    0.00299     0.76874
      H   26    0.22556      0.00000     0.77007    0.00437     0.77444
      H   27    0.22140      0.00000     0.76959    0.00901     0.77860
      H   28    0.23149      0.00000     0.76053    0.00798     0.76851
      H   29    0.22475      0.00000     0.77298    0.00227     0.77525
      H   30    0.22050      0.00000     0.77351    0.00599     0.77950
      H   31    0.22670      0.00000     0.76824    0.00505     0.77330
      H   32    0.22134      0.00000     0.77016    0.00850     0.77866
      H   33    0.21831      0.00000     0.77385    0.00784     0.78169
      H   34    0.23866      0.00000     0.75936    0.00198     0.76134
 =======================================================================
   * Total *   -0.00011     23.99135    71.49641    0.51234    96.00011

 Normal termination of Gaussian 16 at Thu Jul 18 23:30:04 2024.
