 Gaussian 16, Revision A.03,

 -------------------------------------------------------
 # opt=CalcFc B3LYP/6-31G** SCRF=(Solvent=water) scf=xqc
 -------------------------------------------------------

 ----------------------------------
 RNLHGQLZWXBQNY-SCZZXKLOSA-N_conf_0
 ----------------------------------
 Symbolic Z-matrix:
 Charge =  0 Multiplicity = 1

 SCF Done:  E(RB3LYP) =  -503.847445933     A.U. after   11 cycles
 SCF Done:  E(RB3LYP) =  -503.850842993     A.U. after    9 cycles
 SCF Done:  E(RB3LYP) =  -503.851117454     A.U. after    9 cycles
 SCF Done:  E(RB3LYP) =  -503.851130536     A.U. after    8 cycles
 SCF Done:  E(RB3LYP) =  -503.851135047     A.U. after    7 cycles
 SCF Done:  E(RB3LYP) =  -503.851135024     A.U. after    5 cycles
 Optimization completed.
    -- Stationary point found.
 Normal termination of Gaussian 16 at Thu Jul 18 22:31:21 2024.

 ----------------------------------------------------------------------
 # freq B3LYP/6-31G** SCRF=(Solvent=water) volume NMR pop=NPA density=c
 urrent Geom=AllCheck Guess=Read
 ----------------------------------------------------------------------

 Structure from the checkpoint file:  "RNLHGQLZWXBQNY-SCZZXKLOSA-N_conf_0_1.chk"
 ----------------------------------
 RNLHGQLZWXBQNY-SCZZXKLOSA-N_conf_0
 ----------------------------------
 Charge =  0 Multiplicity = 1

 SCF Done:  E(RB3LYP) =  -503.851135024     A.U. after    1 cycles

      1  N    Isotropic =   211.8560   Anisotropy =    28.7513

      2  C    Isotropic =   140.2092   Anisotropy =    22.4509

      3  C    Isotropic =   154.0967   Anisotropy =    11.0798

      4  C    Isotropic =   152.6744   Anisotropy =    14.9748

      5  C    Isotropic =   135.5501   Anisotropy =    36.8149

      6  N    Isotropic =   239.3257   Anisotropy =    20.6159

      7  C    Isotropic =   146.0447   Anisotropy =    26.2931

      8  C    Isotropic =   157.5580   Anisotropy =     5.1535

      9  C    Isotropic =   155.6004   Anisotropy =    51.3962

     10  C    Isotropic =   147.5247   Anisotropy =    20.8939

     11  C    Isotropic =   161.0499   Anisotropy =    38.3231

     12  C    Isotropic =   162.6835   Anisotropy =    38.2703

     13  H    Isotropic =    31.1130   Anisotropy =    12.8732

     14  H    Isotropic =    31.1183   Anisotropy =    13.1526

     15  H    Isotropic =    28.0089   Anisotropy =     8.9209

     16  H    Isotropic =    30.6662   Anisotropy =     7.4105

     17  H    Isotropic =    30.2162   Anisotropy =     6.5017

     18  H    Isotropic =    29.7302   Anisotropy =     5.8346

     19  H    Isotropic =    29.1726   Anisotropy =     6.4144

     20  H    Isotropic =    31.0992   Anisotropy =    16.7144

     21  H    Isotropic =    31.3810   Anisotropy =    13.5617

     22  H    Isotropic =    30.7972   Anisotropy =     5.0743

     23  H    Isotropic =    29.3683   Anisotropy =     6.5258

     24  H    Isotropic =    30.8026   Anisotropy =     9.2189

     25  H    Isotropic =    31.0198   Anisotropy =     8.5518

     26  H    Isotropic =    30.7215   Anisotropy =     8.6917

     27  H    Isotropic =    30.4294   Anisotropy =     6.6741

     28  H    Isotropic =    30.2534   Anisotropy =     6.5395

     29  H    Isotropic =    30.9558   Anisotropy =     8.4212

     30  H    Isotropic =    28.7577   Anisotropy =     5.3823

     31  H    Isotropic =    30.9721   Anisotropy =     8.8601

     32  H    Isotropic =    31.2181   Anisotropy =     8.7403

     33  H    Isotropic =    31.2090   Anisotropy =     8.8310

     34  H    Isotropic =    28.7665   Anisotropy =     5.8238

  Exact polarizability: 162.448   0.222 155.596   0.208  -1.448 150.570
 Approx polarizability: 166.739  -1.393 165.212  -0.996  -0.264 163.953

                      1                      2                      3
                      A                      A                      A
 Frequencies --    108.3805               114.1395               136.3973
 Red. masses --      2.9839                 2.6921                 2.1969
 Frc consts  --      0.0207                 0.0207                 0.0241
 IR Inten    --      4.0631                 3.5394                 2.4083

                      4                      5                      6
                      A                      A                      A
 Frequencies --    175.7878               196.2607               206.6065
 Red. masses --      2.4800                 1.2550                 1.1753
 Frc consts  --      0.0452                 0.0285                 0.0296
 IR Inten    --     27.1976                 8.3498                34.1855

                      7                      8                      9
                      A                      A                      A
 Frequencies --    231.5707               244.7125               248.9276
 Red. masses --      1.8276                 1.4960                 1.5264
 Frc consts  --      0.0577                 0.0528                 0.0557
 IR Inten    --      4.9257                11.6621                11.6930

                     10                     11                     12
                      A                      A                      A
 Frequencies --    267.2869               281.0239               298.9042
 Red. masses --      1.6276                 1.2963                 1.5229
 Frc consts  --      0.0685                 0.0603                 0.0802
 IR Inten    --      6.1779                58.4270                 0.4970

                     13                     14                     15
                      A                      A                      A
 Frequencies --    309.6389               323.9182               345.8971
 Red. masses --      1.9822                 2.8849                 2.8569
 Frc consts  --      0.1120                 0.1783                 0.2014
 IR Inten    --      1.7310                 2.2003                 2.1718

                     16                     17                     18
                      A                      A                      A
 Frequencies --    386.3556               405.3654               421.8218
 Red. masses --      2.0584                 1.9468                 1.8089
 Frc consts  --      0.1810                 0.1885                 0.1896
 IR Inten    --      3.9883                 1.7017                 3.0659

                     19                     20                     21
                      A                      A                      A
 Frequencies --    440.5714               481.7510               520.7430
 Red. masses --      2.0072                 3.0585                 2.7312
 Frc consts  --      0.2295                 0.4182                 0.4364
 IR Inten    --      0.3883                 2.3219                 3.1209

                     22                     23                     24
                      A                      A                      A
 Frequencies --    550.7115               648.9932               756.7915
 Red. masses --      3.0705                 3.6257                 2.9374
 Frc consts  --      0.5487                 0.8998                 0.9912
 IR Inten    --     24.2114                 9.4057                 0.9794

                     25                     26                     27
                      A                      A                      A
 Frequencies --    780.2088               813.5237               858.5900
 Red. masses --      3.3097                 2.2324                 1.5127
 Frc consts  --      1.1870                 0.8705                 0.6570
 IR Inten    --     11.1078                 7.6762               158.5614

                     28                     29                     30
                      A                      A                      A
 Frequencies --    876.8358               889.3440               895.4175
 Red. masses --      1.7457                 1.7209                 1.6526
 Frc consts  --      0.7908                 0.8019                 0.7807
 IR Inten    --     32.3678                13.0470                 2.6852

                     31                     32                     33
                      A                      A                      A
 Frequencies --    915.8300               941.7468               944.3117
 Red. masses --      2.1531                 1.6780                 1.5414
 Frc consts  --      1.0640                 0.8768                 0.8098
 IR Inten    --     39.4392                43.0012                 0.1090

                     34                     35                     36
                      A                      A                      A
 Frequencies --    959.7164               967.1013               991.4204
 Red. masses --      1.9367                 1.6791                 2.0638
 Frc consts  --      1.0510                 0.9253                 1.1952
 IR Inten    --     22.9249                33.3139                10.4681

                     37                     38                     39
                      A                      A                      A
 Frequencies --   1006.0807              1037.1517              1047.0733
 Red. masses --      1.4439                 1.5781                 1.7211
 Frc consts  --      0.8611                 1.0001                 1.1118
 IR Inten    --     22.2784                 3.4192                 2.7190

                     40                     41                     42
                      A                      A                      A
 Frequencies --   1067.9593              1082.6572              1092.3196
 Red. masses --      1.7904                 2.0665                 1.9824
 Frc consts  --      1.2031                 1.4272                 1.3936
 IR Inten    --      4.9040                14.9293                17.4672

                     43                     44                     45
                      A                      A                      A
 Frequencies --   1132.1163              1152.8629              1184.0033
 Red. masses --      1.5282                 1.3648                 1.4289
 Frc consts  --      1.1540                 1.0688                 1.1802
 IR Inten    --      1.4164                 0.5426                 2.9847

                     46                     47                     48
                      A                      A                      A
 Frequencies --   1216.1104              1218.0459              1225.9809
 Red. masses --      1.5076                 2.0014                 2.2325
 Frc consts  --      1.3136                 1.7495                 1.9770
 IR Inten    --      5.2181                 3.3475                21.9804

                     49                     50                     51
                      A                      A                      A
 Frequencies --   1282.4231              1290.6344              1327.4280
 Red. masses --      2.2841                 1.9324                 1.2617
 Frc consts  --      2.2132                 1.8965                 1.3099
 IR Inten    --      8.1287                 3.2068                 8.6547

                     52                     53                     54
                      A                      A                      A
 Frequencies --   1346.0880              1348.7144              1367.4784
 Red. masses --      1.4487                 1.4348                 1.2762
 Frc consts  --      1.5466                 1.5377                 1.4061
 IR Inten    --      0.1919                 1.5089                 6.5199

                     55                     56                     57
                      A                      A                      A
 Frequencies --   1384.2486              1387.0498              1403.3528
 Red. masses --      1.5935                 1.5043                 1.2693
 Frc consts  --      1.7990                 1.7051                 1.4728
 IR Inten    --      4.5359                12.3205                 7.1160

                     58                     59                     60
                      A                      A                      A
 Frequencies --   1406.2918              1411.9324              1417.1368
 Red. masses --      1.2930                 1.4640                 1.3467
 Frc consts  --      1.5067                 1.7196                 1.5934
 IR Inten    --     11.1887                17.4167                 8.0658

                     61                     62                     63
                      A                      A                      A
 Frequencies --   1428.9533              1432.2561              1479.8813
 Red. masses --      1.2528                 1.3590                 1.0767
 Frc consts  --      1.5072                 1.6425                 1.3893
 IR Inten    --      9.2451                 7.4835                 1.3464

                     64                     65                     66
                      A                      A                      A
 Frequencies --   1486.1832              1489.2271              1491.8532
 Red. masses --      1.0768                 1.0722                 1.0680
 Frc consts  --      1.4013                 1.4010                 1.4005
 IR Inten    --      2.8818                 1.0146                 3.7015

                     67                     68                     69
                      A                      A                      A
 Frequencies --   1496.9284              1502.4205              1505.8049
 Red. masses --      1.0543                 1.0838                 1.0638
 Frc consts  --      1.3920                 1.4414                 1.4212
 IR Inten    --      0.4702                 3.1936                 6.4903

                     70                     71                     72
                      A                      A                      A
 Frequencies --   1507.2431              1512.8820              1533.0784
 Red. masses --      1.0665                 1.0577                 1.0547
 Frc consts  --      1.4275                 1.4264                 1.4605
 IR Inten    --      3.9784                 3.4382                23.2788

                     73                     74                     75
                      A                      A                      A
 Frequencies --   1650.1553              1659.9741              2924.7000
 Red. masses --      1.0900                 1.0863                 1.0829
 Frc consts  --      1.7487                 1.7636                 5.4574
 IR Inten    --     41.7598                39.8254               149.7896

                     76                     77                     78
                      A                      A                      A
 Frequencies --   2964.7759              3009.9285              3011.4632
 Red. masses --      1.0702                 1.0633                 1.0601
 Frc consts  --      5.5424                 5.6759                 5.6641
 IR Inten    --    123.4655                94.5946                54.6487

                     79                     80                     81
                      A                      A                      A
 Frequencies --   3017.5265              3021.9690              3025.6536
 Red. masses --      1.0595                 1.0378                 1.0432
 Frc consts  --      5.6837                 5.5839                 5.6269
 IR Inten    --     79.5871                45.8495               121.8814

                     82                     83                     84
                      A                      A                      A
 Frequencies --   3031.5124              3050.0313              3055.2025
 Red. masses --      1.0457                 1.1028                 1.0921
 Frc consts  --      5.6622                 6.0442                 6.0059
 IR Inten    --     44.8953                55.6265                55.0731

                     85                     86                     87
                      A                      A                      A
 Frequencies --   3064.3130              3068.3062              3080.1936
 Red. masses --      1.0983                 1.0967                 1.1009
 Frc consts  --      6.0762                 6.0833                 6.1541
 IR Inten    --     34.3528                55.1283                71.4615

                     88                     89                     90
                      A                      A                      A
 Frequencies --   3081.6409              3092.0909              3096.7705
 Red. masses --      1.1012                 1.1017                 1.1021
 Frc consts  --      6.1615                 6.2063                 6.2270
 IR Inten    --     71.0648               100.8787                81.5964

                     91                     92                     93
                      A                      A                      A
 Frequencies --   3163.0108              3177.2889              3470.1210
 Red. masses --      1.0966                 1.0934                 1.0504
 Frc consts  --      6.4637                 6.5034                 7.4526
 IR Inten    --     12.5942                11.5521                 2.9216

                     94                     95                     96
                      A                      A                      A
 Frequencies --   3500.5059              3550.2914              3575.5249
 Red. masses --      1.0510                 1.0920                 1.0920
 Frc consts  --      7.5876                 8.1094                 8.2254
 IR Inten    --      0.5324                 0.4212                 0.3806

 - Thermochemistry -
 -------------------
 Temperature   298.150 Kelvin.  Pressure   1.00000 Atm.
 Atom     1 has atomic number  7 and mass  14.00307

 Molecular mass:   170.17830 amu.
 Principal axes and moments of inertia in atomic units:
                           1         2         3
     Eigenvalues --  1593.958082354.156902832.85228
           X            0.99971   0.02396   0.00203
           Y           -0.02396   0.99971   0.00255
           Z           -0.00196  -0.00260   0.99999
 This molecule is an asymmetric top.
 Rotational symmetry number  1.
 Warning -- assumption of classical behavior for rotation
           may cause significant error
 Rotational temperatures (Kelvin)      0.05434     0.03679     0.03057
 Rotational constants (GHZ):           1.13224     0.76662     0.63708
 Zero-point vibrational energy     831293.4 (Joules/Mol)
                                  198.68389 (Kcal/Mol)
 Warning -- explicit consideration of  22 degrees of freedom as
           vibrations may cause significant error
 Vibrational temperatures:    155.94   164.22   196.25   252.92   282.38
          (Kelvin)            297.26   333.18   352.09   358.15   384.57
                              404.33   430.06   445.50   466.05   497.67
                              555.88   583.23   606.91   633.88   693.13
                              749.23   792.35   933.76  1088.85  1122.55
                             1170.48  1235.32  1261.57  1279.57  1288.31
                             1317.68  1354.96  1358.65  1380.82  1391.44
                             1426.43  1447.53  1492.23  1506.50  1536.56
                             1557.70  1571.60  1628.86  1658.71  1703.52
                             1749.71  1752.50  1763.91  1845.12  1856.94
                             1909.87  1936.72  1940.50  1967.50  1991.63
                             1995.66  2019.11  2023.34  2031.46  2038.94
                             2055.95  2060.70  2129.22  2138.29  2142.67
                             2146.44  2153.75  2161.65  2166.52  2168.59
                             2176.70  2205.76  2374.21  2388.33  4207.99
                             4265.65  4330.62  4332.82  4341.55  4347.94
                             4353.24  4361.67  4388.31  4395.76  4408.86
                             4414.61  4431.71  4433.79  4448.83  4455.56
                             4550.87  4571.41  4992.73  5036.45  5108.08
                             5144.38

 Zero-point correction=                           0.316623 (Hartree/Particle)
 Thermal correction to Energy=                    0.330421
 Thermal correction to Enthalpy=                  0.331365
 Thermal correction to Gibbs Free Energy=         0.278738
 Sum of electronic and zero-point Energies=           -503.534512
 Sum of electronic and thermal Energies=              -503.520714
 Sum of electronic and thermal Enthalpies=            -503.519770
 Sum of electronic and thermal Free Energies=         -503.572397

                     E (Thermal)             CV                S
                      KCal/Mol        Cal/Mol-Kelvin    Cal/Mol-Kelvin
 Total                  207.342             55.373            110.764
 Electronic               0.000              0.000              0.000
 Translational            0.889              2.981             41.303
 Rotational               0.889              2.981             30.742
 Vibrational            205.565             49.411             38.719
 Vibration     1          0.606              1.943              3.298
 Vibration     2          0.607              1.938              3.197
 Vibration     3          0.614              1.917              2.854
 Vibration     4          0.628              1.872              2.373
 Vibration     5          0.636              1.845              2.168
 Vibration     6          0.641              1.830              2.073
 Vibration     7          0.653              1.793              1.867
 Vibration     8          0.660              1.772              1.768
 Vibration     9          0.662              1.765              1.738
 Vibration    10          0.672              1.733              1.614
 Vibration    11          0.681              1.709              1.527
 Vibration    12          0.692              1.676              1.423
 Vibration    13          0.699              1.655              1.364
 Vibration    14          0.708              1.628              1.290
 Vibration    15          0.724              1.584              1.185
 Vibration    16          0.755              1.499              1.014
 Vibration    17          0.770              1.459              0.943
 Vibration    18          0.784              1.423              0.886
 Vibration    19          0.800              1.382              0.825
 Vibration    20          0.838              1.291              0.705
 Vibration    21          0.876              1.204              0.608
 Vibration    22          0.906              1.138              0.543

 Optimization completed.
    -- Stationary point found.
 Normal termination of Gaussian 16 at Thu Jul 18 22:48:51 2024.
 Gaussian 16:  ES64L-G16RevA.03 25-Dec-2016

 ----------------------------------------------------------------------
 # TD(NStates=10, Root=1) B3LYP/6-31G** SCRF=(Solvent=water) volume pop
 =NPA density=current Geom=AllCheck Guess=Read
 ----------------------------------------------------------------------

 Structure from the checkpoint file:  "RNLHGQLZWXBQNY-SCZZXKLOSA-N_conf_0_2.chk"
 ----------------------------------
 RNLHGQLZWXBQNY-SCZZXKLOSA-N_conf_0
 ----------------------------------
 Charge =  0 Multiplicity = 1

                         Standard orientation:
 ---------------------------------------------------------------------
 Center     Atomic      Atomic             Coordinates (Angstroms)
 Number     Number       Type             X           Y           Z
 ---------------------------------------------------------------------
      1          7           0       -1.197392    2.353482   -0.053904
      2          6           0       -0.649035    1.414608   -1.052863
      3          6           0        0.828822    1.086253   -0.768611
      4          6           0        1.107599    0.138336    0.423539
      5          6           0        2.582635   -0.355132    0.345653
      6          7           0        2.928282   -1.055381   -0.901745
      7          6           0        0.178352   -1.099143    0.330740
      8          6           0       -1.330687   -0.875514    0.040431
      9          6           0       -1.929178   -2.230231   -0.396565
     10          6           0       -1.485309    0.123901   -1.133355
     11          6           0       -2.118150   -0.411679    1.284754
     12          6           0        0.986091    0.875257    1.773281
     13          1           0       -0.663574    3.220584   -0.094195
     14          1           0       -2.145613    2.605426   -0.329358
     15          1           0       -0.676652    1.863819   -2.062033
     16          1           0        1.396018    2.019688   -0.642722
     17          1           0        1.213477    0.612323   -1.680074
     18          1           0        2.742439   -1.056709    1.173924
     19          1           0        3.239985    0.509044    0.539428
     20          1           0        3.762133   -1.616400   -0.746038
     21          1           0        3.191661   -0.378635   -1.613754
     22          1           0        0.281053   -1.693977    1.249908
     23          1           0        0.580834   -1.717909   -0.480242
     24          1           0       -2.993207   -2.129713   -0.641765
     25          1           0       -1.416711   -2.629304   -1.279282
     26          1           0       -1.842508   -2.973150    0.405411
     27          1           0       -1.183759   -0.387601   -2.057703
     28          1           0       -2.546160    0.380709   -1.263243
     29          1           0       -1.954530   -1.099494    2.123319
     30          1           0       -1.843002    0.595846    1.592861
     31          1           0       -3.193796   -0.407285    1.067914
     32          1           0        1.754987    1.654572    1.850518
     33          1           0        1.135483    0.180765    2.609243
     34          1           0        0.018381    1.360779    1.885404
 ---------------------------------------------------------------------

 SCF Done:  E(RB3LYP) =  -503.851135024     A.U. after    1 cycles

 Excitation energies and oscillator strengths:

 Excited State   1:      Singlet-A      6.9917 eV  177.33 nm  f=0.0166  <S**2>=0.000
      48 -> 49         0.66273
      48 -> 50        -0.13418
      48 -> 51        -0.14124
 This state for optimization and/or second-order correction.
 Total Energy, E(TD-HF/TD-DFT) =  -503.594193948
 Copying the excited state density for this state as the 1-particle RhoCI density.

 Excited State   2:      Singlet-A      7.2598 eV  170.78 nm  f=0.0378  <S**2>=0.000
      47 -> 49         0.54743
      47 -> 50         0.39613
      48 -> 50        -0.17187

 Excited State   3:      Singlet-A      7.7883 eV  159.19 nm  f=0.0027  <S**2>=0.000
      47 -> 49        -0.43015
      47 -> 50         0.48408
      48 -> 50        -0.25263

 Excited State   4:      Singlet-A      7.9295 eV  156.36 nm  f=0.0050  <S**2>=0.000
      47 -> 50         0.27123
      48 -> 49         0.20231
      48 -> 50         0.55702
      48 -> 51         0.23606

 Excited State   5:      Singlet-A      8.1443 eV  152.23 nm  f=0.0532  <S**2>=0.000
      47 -> 50        -0.11808
      48 -> 50        -0.25035
      48 -> 51         0.63392

 Excited State   6:      Singlet-A      8.3555 eV  148.39 nm  f=0.0206  <S**2>=0.000
      47 -> 51         0.53259
      47 -> 52         0.25463
      47 -> 53         0.14820
      47 -> 57         0.11176
      48 -> 52        -0.29690

 Excited State   7:      Singlet-A      8.4548 eV  146.64 nm  f=0.0511  <S**2>=0.000
      47 -> 51         0.24181
      47 -> 52         0.15478
      48 -> 52         0.58878
      48 -> 53        -0.11597
      48 -> 55         0.14210

 Excited State   8:      Singlet-A      8.6440 eV  143.43 nm  f=0.0157  <S**2>=0.000
      47 -> 54         0.10471
      48 -> 53        -0.13232
      48 -> 54         0.58636
      48 -> 55         0.11083
      48 -> 56        -0.19068
      48 -> 57         0.15893

 Excited State   9:      Singlet-A      8.6856 eV  142.75 nm  f=0.1267  <S**2>=0.000
      47 -> 51        -0.15168
      47 -> 52         0.54674
      47 -> 53        -0.30060
      48 -> 53         0.10778
      48 -> 55         0.12169

 Excited State  10:      Singlet-A      8.7161 eV  142.25 nm  f=0.0754  <S**2>=0.000
      46 -> 49         0.69419

 The electronic state is 1-A.
 Alpha  occ. eigenvalues --  -14.30844 -14.30510 -10.20408 -10.19626 -10.18457
 Alpha  occ. eigenvalues --  -10.18250 -10.16904 -10.16888 -10.16363 -10.16030
 Alpha  occ. eigenvalues --  -10.15697 -10.15617  -0.88060  -0.87160  -0.81475
 Alpha  occ. eigenvalues --   -0.77524  -0.72621  -0.67276  -0.66633  -0.66490
 Alpha  occ. eigenvalues --   -0.64182  -0.57724  -0.54185  -0.50106  -0.48305
 Alpha  occ. eigenvalues --   -0.46481  -0.46130  -0.44782  -0.44612  -0.42705
 Alpha  occ. eigenvalues --   -0.42401  -0.40535  -0.39772  -0.38908  -0.37141
 Alpha  occ. eigenvalues --   -0.37082  -0.36407  -0.35239  -0.34883  -0.33214
 Alpha  occ. eigenvalues --   -0.32903  -0.31686  -0.31317  -0.29754  -0.28644
 Alpha  occ. eigenvalues --   -0.28267  -0.23289  -0.22533
 Alpha virt. eigenvalues --    0.06982   0.09147   0.10571   0.11638   0.12858
 Alpha virt. eigenvalues --    0.13380   0.14074   0.14221   0.15070   0.16648
 Alpha virt. eigenvalues --    0.17065   0.17313   0.17449   0.17972   0.18997

 Mulliken charges:
               1
     1  N   -0.182109
     2  C    0.012426
     3  C   -0.130535
     4  C    0.050258
     5  C   -0.050086
     6  N   -0.620549
     7  C   -0.133575
     8  C    0.047239
     9  C   -0.303843
    10  C   -0.118063
    11  C   -0.292941
    12  C   -0.302478
    13  H    0.110491
    14  H    0.109032
    15  H    0.100201
    16  H    0.024041
    17  H    0.051925
    18  H    0.095504
    19  H    0.077133
    20  H    0.243857
    21  H    0.239499
    22  H    0.051032
    23  H    0.076792
    24  H    0.087651
    25  H    0.085197
    26  H    0.092896
    27  H    0.038150
    28  H    0.022748
    29  H    0.082436
    30  H    0.093238
    31  H    0.075511
    32  H    0.079829
    33  H    0.087802
    34  H    0.099293
 Sum of Mulliken charges =  -0.00000

 Dipole moment (field-independent basis, Debye):
    X=              1.0870    Y=              2.5313    Z=              0.0393  Tot=              2.7551
 Quadrupole moment (field-independent basis, Debye-Ang):
   XX=            -74.5598   YY=            -78.9431   ZZ=            -81.2847
   XY=             -3.4829   XZ=             -0.6494   YZ=             -2.9107

 Summary of Natural Population Analysis:

                                       Natural Population
                Natural  -----------------------------------------------
    Atom  No    Charge         Core      Valence    Rydberg      Total
 -----------------------------------------------------------------------
      N    1   -0.42311      1.99933     5.40833    0.01545     7.42311
      C    2   -0.10590      1.99912     4.08952    0.01725     6.10590
      C    3   -0.47934      1.99921     4.46456    0.01557     6.47934
      C    4   -0.05356      1.99910     4.03996    0.01450     6.05356
      C    5   -0.25834      1.99926     4.24204    0.01704     6.25834
      N    6   -0.92289      1.99965     5.90902    0.01423     7.92289
      C    7   -0.47327      1.99920     4.45748    0.01659     6.47327
      C    8   -0.04603      1.99913     4.03372    0.01318     6.04603
      C    9   -0.68251      1.99939     4.67250    0.01062     6.68251
      C   10   -0.47657      1.99921     4.46163    0.01573     6.47657
      C   11   -0.68162      1.99936     4.67207    0.01020     6.68162
      C   12   -0.68386      1.99936     4.67450    0.01000     6.68386
      H   13    0.26463      0.00000     0.67025    0.06512     0.73537
      H   14    0.26408      0.00000     0.67000    0.06592     0.73592
      H   15    0.26346      0.00000     0.69899    0.03755     0.73654
      H   16    0.19694      0.00000     0.77683    0.02623     0.80306
      H   17    0.20806      0.00000     0.77453    0.01741     0.79194
      H   18    0.23101      0.00000     0.76515    0.00384     0.76899
      H   19    0.20797      0.00000     0.78758    0.00445     0.79203
      H   20    0.38644      0.00000     0.60797    0.00559     0.61356
      H   21    0.37810      0.00000     0.61449    0.00741     0.62190
      H   22    0.21941      0.00000     0.77187    0.00872     0.78059
      H   23    0.23975      0.00000     0.75246    0.00779     0.76025
      H   24    0.22801      0.00000     0.76842    0.00357     0.77199
      H   25    0.22350      0.00000     0.77121    0.00529     0.77650
      H   26    0.23344      0.00000     0.76356    0.00301     0.76656
      H   27    0.20118      0.00000     0.77931    0.01951     0.79882
      H   28    0.19534      0.00000     0.77817    0.02649     0.80466
      H   29    0.22501      0.00000     0.76818    0.00682     0.77499
      H   30    0.22225      0.00000     0.77474    0.00302     0.77775
      H   31    0.21957      0.00000     0.77246    0.00798     0.78043
      H   32    0.22128      0.00000     0.77155    0.00717     0.77872
      H   33    0.22816      0.00000     0.76587    0.00597     0.77184
      H   34    0.22871      0.00000     0.76871    0.00258     0.77129
 =======================================================================
   * Total *   -0.00071     23.99131    71.49762    0.51178    96.00071

 Normal termination of Gaussian 16 at Thu Jul 18 23:12:20 2024.
