 Gaussian 16, Revision A.03,

 -------------------------------------------------------
 # opt=CalcFc B3LYP/6-31G** SCRF=(Solvent=water) scf=xqc
 -------------------------------------------------------

 ----------------------------------
 RNLHGQLZWXBQNY-SCZZXKLOSA-N_conf_1
 ----------------------------------
 Symbolic Z-matrix:
 Charge =  0 Multiplicity = 1

 SCF Done:  E(RB3LYP) =  -503.853281018     A.U. after   11 cycles
 SCF Done:  E(RB3LYP) =  -503.856223393     A.U. after    9 cycles
 SCF Done:  E(RB3LYP) =  -503.856410653     A.U. after    9 cycles
 SCF Done:  E(RB3LYP) =  -503.856413596     A.U. after    7 cycles
 SCF Done:  E(RB3LYP) =  -503.856413626     A.U. after    6 cycles
 Optimization completed.
    -- Stationary point found.
 Normal termination of Gaussian 16 at Mon Jul 22 17:46:19 2024.

 ----------------------------------------------------------------------
 # freq B3LYP/6-31G** SCRF=(Solvent=water) volume NMR pop=NPA density=c
 urrent Geom=AllCheck Guess=Read
 ----------------------------------------------------------------------

 Structure from the checkpoint file:  "RNLHGQLZWXBQNY-SCZZXKLOSA-N_conf_1_1.chk"
 ----------------------------------
 RNLHGQLZWXBQNY-SCZZXKLOSA-N_conf_1
 ----------------------------------
 Charge =  0 Multiplicity = 1

 SCF Done:  E(RB3LYP) =  -503.856413626     A.U. after    1 cycles

      1  N    Isotropic =   216.9385   Anisotropy =    48.8427

      2  C    Isotropic =   145.5362   Anisotropy =    33.4135

      3  C    Isotropic =   145.5405   Anisotropy =    30.1448

      4  C    Isotropic =   151.3278   Anisotropy =    10.4591

      5  C    Isotropic =   130.5825   Anisotropy =    34.0062

      6  N    Isotropic =   239.5000   Anisotropy =    22.6687

      7  C    Isotropic =   145.7670   Anisotropy =    24.9040

      8  C    Isotropic =   156.1456   Anisotropy =     5.3987

      9  C    Isotropic =   163.7140   Anisotropy =    37.0686

     10  C    Isotropic =   138.8345   Anisotropy =    38.5735

     11  C    Isotropic =   156.5484   Anisotropy =    50.7888

     12  C    Isotropic =   166.9327   Anisotropy =    33.2271

     13  H    Isotropic =    31.7620   Anisotropy =    11.3689

     14  H    Isotropic =    31.0989   Anisotropy =    14.6330

     15  H    Isotropic =    28.7315   Anisotropy =     3.4505

     16  H    Isotropic =    30.3323   Anisotropy =     6.0348

     17  H    Isotropic =    31.1379   Anisotropy =     4.8030

     18  H    Isotropic =    29.5376   Anisotropy =     5.7982

     19  H    Isotropic =    29.1494   Anisotropy =     4.9239

     20  H    Isotropic =    31.1675   Anisotropy =    16.8884

     21  H    Isotropic =    31.3071   Anisotropy =    11.5904

     22  H    Isotropic =    30.2526   Anisotropy =     4.1941

     23  H    Isotropic =    30.7356   Anisotropy =     4.6689

     24  H    Isotropic =    30.9593   Anisotropy =     8.4164

     25  H    Isotropic =    30.0719   Anisotropy =     5.8594

     26  H    Isotropic =    31.0145   Anisotropy =     9.5262

     27  H    Isotropic =    30.2026   Anisotropy =     5.1678

     28  H    Isotropic =    30.9130   Anisotropy =     4.7615

     29  H    Isotropic =    30.6390   Anisotropy =     8.8719

     30  H    Isotropic =    30.8676   Anisotropy =     9.3566

     31  H    Isotropic =    31.0687   Anisotropy =     8.6018

     32  H    Isotropic =    30.2510   Anisotropy =     5.5113

     33  H    Isotropic =    30.0770   Anisotropy =     7.5567

     34  H    Isotropic =    31.2084   Anisotropy =    10.1544

  Exact polarizability: 163.993   0.827 156.171   0.152  -1.625 144.899
 Approx polarizability: 168.069   1.792 164.790   0.795  -1.618 161.382

                      1                      2                      3
                      A                      A                      A
 Frequencies --     97.9978               114.3015               128.5708
 Red. masses --      2.8788                 2.8020                 2.3617
 Frc consts  --      0.0163                 0.0216                 0.0230
 IR Inten    --      2.6440                 1.6634                 1.8158

                      4                      5                      6
                      A                      A                      A
 Frequencies --    157.7406               174.4191               212.2627
 Red. masses --      2.6345                 1.2125                 1.3402
 Frc consts  --      0.0386                 0.0217                 0.0356
 IR Inten    --      0.7024                 2.6129                25.4604

                      7                      8                      9
                      A                      A                      A
 Frequencies --    233.1210               247.4592               256.4372
 Red. masses --      1.5461                 1.3578                 1.4133
 Frc consts  --      0.0495                 0.0490                 0.0548
 IR Inten    --     23.7680                 5.0769                16.5229

                     10                     11                     12
                      A                      A                      A
 Frequencies --    260.5607               290.0652               301.5194
 Red. masses --      1.2280                 1.4599                 1.8410
 Frc consts  --      0.0491                 0.0724                 0.0986
 IR Inten    --     65.8159                 1.2248                26.7879

                     13                     14                     15
                      A                      A                      A
 Frequencies --    311.6142               335.7176               351.0355
 Red. masses --      2.2729                 2.7229                 2.3179
 Frc consts  --      0.1300                 0.1808                 0.1683
 IR Inten    --      1.3940                 3.3998                 0.3496

                     16                     17                     18
                      A                      A                      A
 Frequencies --    371.0083               408.5581               423.0171
 Red. masses --      2.9732                 2.3276                 2.4738
 Frc consts  --      0.2411                 0.2289                 0.2608
 IR Inten    --      2.2002                 2.9862                 5.3361

                     19                     20                     21
                      A                      A                      A
 Frequencies --    455.0332               465.2355               497.2038
 Red. masses --      1.9901                 2.2714                 2.4057
 Frc consts  --      0.2428                 0.2897                 0.3504
 IR Inten    --      0.7669                 1.1164                 1.7398

                     22                     23                     24
                      A                      A                      A
 Frequencies --    526.0043               595.5149               775.1346
 Red. masses --      2.4115                 2.8087                 3.2122
 Frc consts  --      0.3931                 0.5869                 1.1371
 IR Inten    --      1.1834                18.0945                 1.6761

                     25                     26                     27
                      A                      A                      A
 Frequencies --    784.8029               863.5022               867.1809
 Red. masses --      2.9514                 2.1102                 1.4863
 Frc consts  --      1.0710                 0.9270                 0.6585
 IR Inten    --      3.5431                13.2189               105.8763

                     28                     29                     30
                      A                      A                      A
 Frequencies --    876.9266               895.3133               905.9820
 Red. masses --      1.5862                 1.7732                 1.7786
 Frc consts  --      0.7187                 0.8375                 0.8602
 IR Inten    --     16.5263                 3.1329                74.6351

                     31                     32                     33
                      A                      A                      A
 Frequencies --    923.2194               940.7116               946.0010
 Red. masses --      1.8186                 1.8778                 1.5201
 Frc consts  --      0.9132                 0.9791                 0.8015
 IR Inten    --     43.1228               143.4373                11.0669

                     34                     35                     36
                      A                      A                      A
 Frequencies --    955.8717               976.9894               984.0360
 Red. masses --      1.7746                 1.7255                 1.5904
 Frc consts  --      0.9553                 0.9704                 0.9074
 IR Inten    --      4.2851                40.0631                 4.3601

                     37                     38                     39
                      A                      A                      A
 Frequencies --   1019.5942              1034.6986              1066.4575
 Red. masses --      1.8070                 1.4563                 1.9335
 Frc consts  --      1.1068                 0.9186                 1.2956
 IR Inten    --     12.9516                 0.9238                16.5858

                     40                     41                     42
                      A                      A                      A
 Frequencies --   1076.3732              1094.9672              1121.7820
 Red. masses --      2.1946                 1.6239                 1.8541
 Frc consts  --      1.4981                 1.1471                 1.3747
 IR Inten    --      4.9226                13.4211                 3.5032

                     43                     44                     45
                      A                      A                      A
 Frequencies --   1142.8274              1144.1112              1158.4278
 Red. masses --      1.5844                 1.6272                 1.4638
 Frc consts  --      1.2192                 1.2550                 1.1573
 IR Inten    --     17.5192                 4.0187                 3.0150

                     46                     47                     48
                      A                      A                      A
 Frequencies --   1186.4342              1219.6238              1260.2239
 Red. masses --      1.5776                 2.1485                 2.5966
 Frc consts  --      1.3084                 1.8830                 2.4297
 IR Inten    --     12.6068                 1.5243                 3.2853

                     49                     50                     51
                      A                      A                      A
 Frequencies --   1268.1690              1284.8768              1307.9519
 Red. masses --      2.2170                 2.0394                 1.3860
 Frc consts  --      2.1007                 1.9837                 1.3970
 IR Inten    --     13.4662                 9.2221                 7.2638

                     52                     53                     54
                      A                      A                      A
 Frequencies --   1322.8670              1342.3243              1366.7431
 Red. masses --      1.3587                 1.3950                 1.3732
 Frc consts  --      1.4009                 1.4810                 1.5113
 IR Inten    --      1.5987                 3.6136                 2.5778

                     55                     56                     57
                      A                      A                      A
 Frequencies --   1372.4334              1377.5981              1392.7703
 Red. masses --      1.4518                 1.4152                 1.3258
 Frc consts  --      1.6111                 1.5824                 1.5152
 IR Inten    --      1.3420                 2.2334                10.1767

                     58                     59                     60
                      A                      A                      A
 Frequencies --   1407.8848              1412.7652              1429.4354
 Red. masses --      1.2777                 1.3316                 1.2724
 Frc consts  --      1.4921                 1.5659                 1.5318
 IR Inten    --      2.9958                 6.6599                 1.7887

                     61                     62                     63
                      A                      A                      A
 Frequencies --   1430.4880              1432.1262              1482.9428
 Red. masses --      1.3044                 1.3583                 1.0826
 Frc consts  --      1.5726                 1.6414                 1.4027
 IR Inten    --      8.4917                23.9138                 0.3612

                     64                     65                     66
                      A                      A                      A
 Frequencies --   1487.6097              1490.7122              1495.3599
 Red. masses --      1.0824                 1.0493                 1.0734
 Frc consts  --      1.4113                 1.3738                 1.4142
 IR Inten    --      0.5090                 3.4464                 0.3669

                     67                     68                     69
                      A                      A                      A
 Frequencies --   1499.6818              1500.2735              1506.8189
 Red. masses --      1.0591                 1.0734                 1.0640
 Frc consts  --      1.4034                 1.4234                 1.4233
 IR Inten    --      3.4695                 1.1082                 4.5164

                     70                     71                     72
                      A                      A                      A
 Frequencies --   1512.0302              1516.1220              1523.5711
 Red. masses --      1.0627                 1.0802                 1.0569
 Frc consts  --      1.4314                 1.4629                 1.4455
 IR Inten    --      5.6970                 8.7348                12.5973

                     73                     74                     75
                      A                      A                      A
 Frequencies --   1654.4406              1658.2615              2952.8347
 Red. masses --      1.0894                 1.0862                 1.0712
 Frc consts  --      1.7569                 1.7598                 5.5029
 IR Inten    --     35.5955                42.2117               108.7678

                     76                     77                     78
                      A                      A                      A
 Frequencies --   2996.1946              2999.1732              3005.5743
 Red. masses --      1.0654                 1.0622                 1.0635
 Frc consts  --      5.6349                 5.6294                 5.6605
 IR Inten    --     30.6811                56.3385               108.0424

                     79                     80                     81
                      A                      A                      A
 Frequencies --   3026.6315              3034.4985              3039.3287
 Red. masses --      1.0358                 1.0850                 1.0406
 Frc consts  --      5.5905                 5.8866                 5.6638
 IR Inten    --     58.0034                36.4851                39.8354

                     82                     83                     84
                      A                      A                      A
 Frequencies --   3044.9952              3049.3441              3052.5335
 Red. masses --      1.0493                 1.0966                 1.0890
 Frc consts  --      5.7322                 6.0078                 5.9788
 IR Inten    --     11.4941                88.5176                75.2938

                     85                     86                     87
                      A                      A                      A
 Frequencies --   3056.3825              3065.2907              3094.3746
 Red. masses --      1.0974                 1.0948                 1.1025
 Frc consts  --      6.0401                 6.0610                 6.2197
 IR Inten    --     50.8619               132.7705                 4.4009

                     88                     89                     90
                      A                      A                      A
 Frequencies --   3098.8204              3100.9258              3116.0767
 Red. masses --      1.1018                 1.1022                 1.0925
 Frc consts  --      6.2337                 6.2443                 6.2503
 IR Inten    --    107.2401                85.8212                69.8359

                     91                     92                     93
                      A                      A                      A
 Frequencies --   3135.0261              3151.8985              3456.2020
 Red. masses --      1.0987                 1.0982                 1.0506
 Frc consts  --      6.3622                 6.4278                 7.3940
 IR Inten    --     34.1109                57.1584                 3.4415

                     94                     95                     96
                      A                      A                      A
 Frequencies --   3490.1686              3535.2188              3565.6820
 Red. masses --      1.0508                 1.0908                 1.0916
 Frc consts  --      7.5415                 8.0318                 8.1772
 IR Inten    --      0.9186                 0.8176                 0.0623

 - Thermochemistry -
 -------------------
 Temperature   298.150 Kelvin.  Pressure   1.00000 Atm.
 Atom     1 has atomic number  7 and mass  14.00307

 Molecular mass:   170.17830 amu.
 Principal axes and moments of inertia in atomic units:
                           1         2         3
     Eigenvalues --  1677.860592413.847983230.84799
           X            0.99951  -0.03137   0.00133
           Y            0.03137   0.99951  -0.00085
           Z           -0.00130   0.00089   1.00000
 This molecule is an asymmetric top.
 Rotational symmetry number  1.
 Warning -- assumption of classical behavior for rotation
           may cause significant error
 Rotational temperatures (Kelvin)      0.05162     0.03588     0.02681
 Rotational constants (GHZ):           1.07562     0.74766     0.55860
 Zero-point vibrational energy     831279.2 (Joules/Mol)
                                  198.68049 (Kcal/Mol)
 Warning -- explicit consideration of  23 degrees of freedom as
           vibrations may cause significant error
 Vibrational temperatures:    141.00   164.45   184.98   226.95   250.95
          (Kelvin)            305.40   335.41   356.04   368.96   374.89
                              417.34   433.82   448.34   483.02   505.06
                              533.80   587.82   608.63   654.69   669.37
                              715.37   756.80   856.81  1115.25  1129.16
                             1242.39  1247.68  1261.70  1288.16  1303.51
                             1328.31  1353.47  1361.08  1375.29  1405.67
                             1415.81  1466.97  1488.70  1534.39  1548.66
                             1575.41  1613.99  1644.27  1646.12  1666.72
                             1707.01  1754.77  1813.18  1824.61  1848.65
                             1881.85  1903.31  1931.31  1966.44  1974.63
                             1982.06  2003.89  2025.63  2032.65  2056.64
                             2058.15  2060.51  2133.62  2140.34  2144.80
                             2151.49  2157.71  2158.56  2167.98  2175.47
                             2181.36  2192.08  2380.37  2385.87  4248.47
                             4310.86  4315.14  4324.35  4354.65  4365.97
                             4372.92  4381.07  4387.33  4391.91  4397.45
                             4410.27  4452.11  4458.51  4461.54  4483.34
                             4510.60  4534.88  4972.70  5021.57  5086.39
                             5130.22

 Zero-point correction=                           0.316618 (Hartree/Particle)
 Thermal correction to Energy=                    0.330505
 Thermal correction to Enthalpy=                  0.331449
 Thermal correction to Gibbs Free Energy=         0.278420
 Sum of electronic and zero-point Energies=           -503.539796
 Sum of electronic and thermal Energies=              -503.525909
 Sum of electronic and thermal Enthalpies=            -503.524965
 Sum of electronic and thermal Free Energies=         -503.577994

                     E (Thermal)             CV                S
                      KCal/Mol        Cal/Mol-Kelvin    Cal/Mol-Kelvin
 Total                  207.395             55.425            111.609
 Electronic               0.000              0.000              0.000
 Translational            0.889              2.981             41.303
 Rotational               0.889              2.981             30.949
 Vibrational            205.617             49.464             39.358
 Vibration     1          0.603              1.951              3.494
 Vibration     2          0.607              1.938              3.195
 Vibration     3          0.611              1.925              2.967
 Vibration     4          0.621              1.894              2.577
 Vibration     5          0.627              1.874              2.387
 Vibration     6          0.643              1.822              2.024
 Vibration     7          0.654              1.790              1.855
 Vibration     8          0.661              1.767              1.749
 Vibration     9          0.666              1.752              1.686
 Vibration    10          0.669              1.745              1.658
 Vibration    11          0.686              1.692              1.474
 Vibration    12          0.694              1.671              1.408
 Vibration    13          0.700              1.652              1.354
 Vibration    14          0.717              1.604              1.232
 Vibration    15          0.728              1.573              1.162
 Vibration    16          0.743              1.532              1.076
 Vibration    17          0.773              1.452              0.932
 Vibration    18          0.785              1.420              0.882
 Vibration    19          0.813              1.350              0.781
 Vibration    20          0.823              1.327              0.751
 Vibration    21          0.853              1.256              0.665
 Vibration    22          0.881              1.192              0.596
 Vibration    23          0.953              1.041              0.457

 Optimization completed.
    -- Stationary point found.
 Normal termination of Gaussian 16 at Mon Jul 22 17:57:22 2024.
 Gaussian 16:  ES64L-G16RevA.03 25-Dec-2016

 ----------------------------------------------------------------------
 # TD(NStates=10, Root=1) B3LYP/6-31G** SCRF=(Solvent=water) volume pop
 =NPA density=current Geom=AllCheck Guess=Read
 ----------------------------------------------------------------------

 Structure from the checkpoint file:  "RNLHGQLZWXBQNY-SCZZXKLOSA-N_conf_1_2.chk"
 ----------------------------------
 RNLHGQLZWXBQNY-SCZZXKLOSA-N_conf_1
 ----------------------------------
 Charge =  0 Multiplicity = 1

                         Standard orientation:
 ---------------------------------------------------------------------
 Center     Atomic      Atomic             Coordinates (Angstroms)
 Number     Number       Type             X           Y           Z
 ---------------------------------------------------------------------
      1          7           0        2.001466    2.609648   -0.228261
      2          6           0        1.262777    1.391080    0.155304
      3          6           0       -0.205982    1.544294   -0.258913
      4          6           0       -1.107487    0.347982    0.130377
      5          6           0       -2.448147    0.517170   -0.632587
      6          7           0       -3.419554   -0.550796   -0.347987
      7          6           0       -0.441351   -0.975571   -0.341353
      8          6           0        1.072745   -1.186539   -0.058637
      9          6           0        1.360674   -1.578147    1.407170
     10          6           0        1.845731    0.098260   -0.441939
     11          6           0        1.562431   -2.349712   -0.946079
     12          6           0       -1.408189    0.369221    1.643092
     13          1           0        2.019889    2.667730   -1.247390
     14          1           0        2.978044    2.498620    0.043677
     15          1           0        1.319822    1.336077    1.249933
     16          1           0       -0.609788    2.470384    0.168471
     17          1           0       -0.231851    1.668223   -1.352933
     18          1           0       -2.902271    1.466616   -0.322239
     19          1           0       -2.220670    0.614498   -1.708450
     20          1           0       -4.317331   -0.291185   -0.751010
     21          1           0       -3.142690   -1.396996   -0.841394
     22          1           0       -0.998909   -1.830489    0.062383
     23          1           0       -0.563749   -1.018913   -1.433682
     24          1           0        0.756845   -2.443079    1.704264
     25          1           0        1.157982   -0.774283    2.117234
     26          1           0        2.415326   -1.853976    1.522007
     27          1           0        2.899702   -0.003767   -0.148361
     28          1           0        1.836465    0.205529   -1.537371
     29          1           0        1.033980   -3.279318   -0.703797
     30          1           0        2.634099   -2.528282   -0.800997
     31          1           0        1.397718   -2.136907   -2.008230
     32          1           0       -0.505192    0.368687    2.256074
     33          1           0       -2.016215   -0.492598    1.928156
     34          1           0       -1.973805    1.273240    1.898784
 ---------------------------------------------------------------------

 SCF Done:  E(RB3LYP) =  -503.856413626     A.U. after    1 cycles

 Excitation energies and oscillator strengths:

 Excited State   1:      Singlet-A      7.2796 eV  170.32 nm  f=0.0190  <S**2>=0.000
      47 -> 49         0.39740
      47 -> 50        -0.25143
      47 -> 51         0.15454
      48 -> 49         0.44834
      48 -> 50        -0.15435
      48 -> 51         0.14352
 This state for optimization and/or second-order correction.
 Total Energy, E(TD-HF/TD-DFT) =  -503.588892733
 Copying the excited state density for this state as the 1-particle RhoCI density.

 Excited State   2:      Singlet-A      7.4107 eV  167.31 nm  f=0.0203  <S**2>=0.000
      47 -> 49         0.38332
      47 -> 50         0.16908
      47 -> 51         0.14292
      48 -> 49        -0.38129
      48 -> 50        -0.36266
      48 -> 51        -0.12213

 Excited State   3:      Singlet-A      7.7275 eV  160.45 nm  f=0.0057  <S**2>=0.000
      47 -> 49        -0.27185
      47 -> 50         0.26794
      47 -> 51         0.16778
      48 -> 49         0.32982
      48 -> 50        -0.32200
      48 -> 51        -0.31814

 Excited State   4:      Singlet-A      7.9592 eV  155.78 nm  f=0.0057  <S**2>=0.000
      47 -> 49         0.33882
      47 -> 50         0.33802
      47 -> 51        -0.22834
      47 -> 52         0.11506
      47 -> 53         0.10522
      48 -> 49         0.18244
      48 -> 50         0.29809
      48 -> 51        -0.22126

 Excited State   5:      Singlet-A      8.1229 eV  152.63 nm  f=0.0176  <S**2>=0.000
      47 -> 50         0.10571
      47 -> 51        -0.19131
      47 -> 52        -0.26494
      48 -> 50        -0.11136
      48 -> 51         0.29019
      48 -> 52         0.51313

 Excited State   6:      Singlet-A      8.3602 eV  148.30 nm  f=0.0092  <S**2>=0.000
      47 -> 50         0.41719
      47 -> 51         0.18478
      47 -> 52        -0.12740
      47 -> 53        -0.21645
      48 -> 50         0.11512
      48 -> 51         0.32988
      48 -> 52        -0.23834
      48 -> 53        -0.16313

 Excited State   7:      Singlet-A      8.3826 eV  147.91 nm  f=0.0020  <S**2>=0.000
      47 -> 50        -0.11252
      47 -> 51         0.40315
      47 -> 52        -0.20675
      48 -> 50         0.33061
      48 -> 51        -0.22474
      48 -> 52         0.27648
      48 -> 53        -0.17046

 Excited State   8:      Singlet-A      8.4308 eV  147.06 nm  f=0.0422  <S**2>=0.000
      47 -> 51         0.27543
      47 -> 52         0.53788
      48 -> 51         0.21503
      48 -> 52         0.24675

 Excited State   9:      Singlet-A      8.6018 eV  144.14 nm  f=0.0027  <S**2>=0.000
      47 -> 51         0.23969
      47 -> 52        -0.17704
      47 -> 53         0.32008
      47 -> 54        -0.22007
      47 -> 56         0.13765
      48 -> 51         0.11466
      48 -> 53         0.37361
      48 -> 54        -0.19363
      48 -> 56         0.11689

 Excited State  10:      Singlet-A      8.7664 eV  141.43 nm  f=0.0057  <S**2>=0.000
      47 -> 53        -0.38146
      48 -> 53         0.49783
      48 -> 54         0.25597

 The electronic state is 1-A.
 Alpha  occ. eigenvalues --  -14.30806 -14.30758 -10.20328 -10.19790 -10.19114
 Alpha  occ. eigenvalues --  -10.18809 -10.17080 -10.17030 -10.16902 -10.16705
 Alpha  occ. eigenvalues --  -10.16654 -10.16219  -0.88262  -0.87365  -0.82240
 Alpha  occ. eigenvalues --   -0.78011  -0.72063  -0.68217  -0.67042  -0.66893
 Alpha  occ. eigenvalues --   -0.64823  -0.57906  -0.54760  -0.51670  -0.47975
 Alpha  occ. eigenvalues --   -0.47495  -0.46430  -0.43984  -0.43774  -0.43547
 Alpha  occ. eigenvalues --   -0.42690  -0.41408  -0.40755  -0.38743  -0.37976
 Alpha  occ. eigenvalues --   -0.37079  -0.36330  -0.35920  -0.34982  -0.33896
 Alpha  occ. eigenvalues --   -0.32927  -0.32391  -0.31921  -0.30383  -0.29560
 Alpha  occ. eigenvalues --   -0.28598  -0.23500  -0.23164
 Alpha virt. eigenvalues --    0.07216   0.09178   0.09784   0.10346   0.11641
 Alpha virt. eigenvalues --    0.12420   0.13476   0.14401   0.15394   0.16041
 Alpha virt. eigenvalues --    0.16256   0.16595   0.17433   0.18748   0.18999

 Mulliken charges:
               1
     1  N   -0.629459
     2  C    0.040486
     3  C   -0.144639
     4  C    0.025165
     5  C   -0.081627
     6  N   -0.137329
     7  C   -0.088785
     8  C    0.032398
     9  C   -0.294472
    10  C   -0.148549
    11  C   -0.304565
    12  C   -0.275272
    13  H    0.243045
    14  H    0.247184
    15  H    0.084898
    16  H    0.072922
    17  H    0.068577
    18  H    0.079613
    19  H    0.117831
    20  H    0.089045
    21  H    0.087173
    22  H    0.012122
    23  H    0.007859
    24  H    0.084935
    25  H    0.088936
    26  H    0.079592
    27  H    0.063381
    28  H    0.068530
    29  H    0.091607
    30  H    0.089963
    31  H    0.089388
    32  H    0.091207
    33  H    0.077968
    34  H    0.070871
 Sum of Mulliken charges =   0.00000

 Dipole moment (field-independent basis, Debye):
    X=             -1.4708    Y=             -0.3327    Z=             -1.3128  Tot=              1.9993
 Quadrupole moment (field-independent basis, Debye-Ang):
   XX=            -70.1498   YY=            -89.1542   ZZ=            -80.0627
   XY=              1.0345   XZ=              0.6247   YZ=             -3.0952

 Summary of Natural Population Analysis:

                                       Natural Population
                Natural  -----------------------------------------------
    Atom  No    Charge         Core      Valence    Rydberg      Total
 -----------------------------------------------------------------------
      N    1   -0.90852      1.99966     5.89354    0.01533     7.90852
      C    2   -0.04959      1.99919     4.03324    0.01716     6.04959
      C    3   -0.47843      1.99922     4.46300    0.01620     6.47843
      C    4   -0.04709      1.99910     4.03444    0.01355     6.04709
      C    5   -0.34099      1.99917     4.32151    0.02031     6.34099
      N    6   -0.38088      1.99935     5.36439    0.01714     7.38088
      C    7   -0.47799      1.99920     4.46107    0.01772     6.47799
      C    8   -0.04848      1.99913     4.03612    0.01323     6.04848
      C    9   -0.68232      1.99937     4.67337    0.00958     6.68232
      C   10   -0.48075      1.99922     4.46664    0.01489     6.48075
      C   11   -0.67898      1.99939     4.66957    0.01003     6.67898
      C   12   -0.68341      1.99936     4.67412    0.00993     6.68341
      H   13    0.37869      0.00000     0.61720    0.00411     0.62131
      H   14    0.38708      0.00000     0.60910    0.00382     0.61292
      H   15    0.22864      0.00000     0.76596    0.00540     0.77136
      H   16    0.23162      0.00000     0.76030    0.00808     0.76838
      H   17    0.21912      0.00000     0.77341    0.00747     0.78088
      H   18    0.21202      0.00000     0.76361    0.02437     0.78798
      H   19    0.25750      0.00000     0.71435    0.02815     0.74250
      H   20    0.24440      0.00000     0.68553    0.07008     0.75560
      H   21    0.24966      0.00000     0.68019    0.07015     0.75034
      H   22    0.19098      0.00000     0.78631    0.02272     0.80902
      H   23    0.18923      0.00000     0.78500    0.02577     0.81077
      H   24    0.22712      0.00000     0.76837    0.00451     0.77288
      H   25    0.22101      0.00000     0.77497    0.00401     0.77899
      H   26    0.22136      0.00000     0.77363    0.00501     0.77864
      H   27    0.22488      0.00000     0.76859    0.00653     0.77512
      H   28    0.22439      0.00000     0.76970    0.00591     0.77561
      H   29    0.23147      0.00000     0.76580    0.00274     0.76853
      H   30    0.22983      0.00000     0.76726    0.00291     0.77017
      H   31    0.22688      0.00000     0.76980    0.00332     0.77312
      H   32    0.22300      0.00000     0.77092    0.00608     0.77700
      H   33    0.22122      0.00000     0.77082    0.00796     0.77878
      H   34    0.21650      0.00000     0.77287    0.01063     0.78350
 =======================================================================
   * Total *   -0.00084     23.99134    71.50470    0.50480    96.00084

 Normal termination of Gaussian 16 at Mon Jul 22 18:09:41 2024.
