 Gaussian 16, Revision A.03,

 -------------------------------------------------------
 # opt=CalcFc B3LYP/6-31G** SCRF=(Solvent=water) scf=xqc
 -------------------------------------------------------

 ----------------------------------
 RNLHGQLZWXBQNY-SCZZXKLOSA-N_conf_3
 ----------------------------------
 Symbolic Z-matrix:
 Charge =  0 Multiplicity = 1

 SCF Done:  E(RB3LYP) =  -503.848321894     A.U. after   11 cycles
 SCF Done:  E(RB3LYP) =  -503.850824938     A.U. after    9 cycles
 SCF Done:  E(RB3LYP) =  -503.850924951     A.U. after    8 cycles
 SCF Done:  E(RB3LYP) =  -503.850925525     A.U. after    7 cycles
 SCF Done:  E(RB3LYP) =  -503.850925548     A.U. after    6 cycles
 Optimization completed.
    -- Stationary point found.
 Normal termination of Gaussian 16 at Mon Jul 22 17:54:02 2024.

 ----------------------------------------------------------------------
 # freq B3LYP/6-31G** SCRF=(Solvent=water) volume NMR pop=NPA density=c
 urrent Geom=AllCheck Guess=Read
 ----------------------------------------------------------------------

 Structure from the checkpoint file:  "RNLHGQLZWXBQNY-SCZZXKLOSA-N_conf_3_1.chk"
 ----------------------------------
 RNLHGQLZWXBQNY-SCZZXKLOSA-N_conf_3
 ----------------------------------
 Charge =  0 Multiplicity = 1

 SCF Done:  E(RB3LYP) =  -503.850925548     A.U. after    1 cycles

      1  N    Isotropic =   217.4462   Anisotropy =    47.1288

      2  C    Isotropic =   143.8812   Anisotropy =    38.4428

      3  C    Isotropic =   147.4909   Anisotropy =    38.2428

      4  C    Isotropic =   151.9261   Anisotropy =    16.3959

      5  C    Isotropic =   131.2649   Anisotropy =    37.4807

      6  N    Isotropic =   245.1624   Anisotropy =    19.1751

      7  C    Isotropic =   148.8742   Anisotropy =    24.9741

      8  C    Isotropic =   157.6872   Anisotropy =     6.4160

      9  C    Isotropic =   159.3799   Anisotropy =    45.0352

     10  C    Isotropic =   143.1756   Anisotropy =    38.3169

     11  C    Isotropic =   160.3692   Anisotropy =    42.1381

     12  C    Isotropic =   164.1739   Anisotropy =    30.8643

     13  H    Isotropic =    31.8026   Anisotropy =    11.1264

     14  H    Isotropic =    31.2211   Anisotropy =    14.8461

     15  H    Isotropic =    28.9673   Anisotropy =     3.9538

     16  H    Isotropic =    30.3574   Anisotropy =     5.8426

     17  H    Isotropic =    31.0426   Anisotropy =     5.3111

     18  H    Isotropic =    29.5123   Anisotropy =     6.6059

     19  H    Isotropic =    29.4957   Anisotropy =     5.7988

     20  H    Isotropic =    31.2602   Anisotropy =    12.3665

     21  H    Isotropic =    31.2620   Anisotropy =    12.8369

     22  H    Isotropic =    30.7200   Anisotropy =     4.5585

     23  H    Isotropic =    30.3635   Anisotropy =     5.0999

     24  H    Isotropic =    30.5871   Anisotropy =     7.8496

     25  H    Isotropic =    31.0992   Anisotropy =     9.7419

     26  H    Isotropic =    30.8195   Anisotropy =     8.8933

     27  H    Isotropic =    30.4914   Anisotropy =     5.5524

     28  H    Isotropic =    30.4230   Anisotropy =     3.2179

     29  H    Isotropic =    30.8580   Anisotropy =     9.3472

     30  H    Isotropic =    30.4868   Anisotropy =     6.3805

     31  H    Isotropic =    30.9646   Anisotropy =     9.0297

     32  H    Isotropic =    30.6665   Anisotropy =     7.8895

     33  H    Isotropic =    30.3916   Anisotropy =     5.1107

     34  H    Isotropic =    31.1203   Anisotropy =     9.9276

  Exact polarizability: 160.629  -2.361 156.265   2.587   2.613 145.018
 Approx polarizability: 165.934  -3.425 164.803   2.208   3.130 162.282

                      1                      2                      3
                      A                      A                      A
 Frequencies --     62.4117               117.8472               128.5094
 Red. masses --      2.7006                 2.5783                 2.5716
 Frc consts  --      0.0062                 0.0211                 0.0250
 IR Inten    --      0.7186                 1.0603                 1.6188

                      4                      5                      6
                      A                      A                      A
 Frequencies --    141.7617               199.5352               245.5416
 Red. masses --      2.6482                 2.1962                 1.0498
 Frc consts  --      0.0314                 0.0515                 0.0373
 IR Inten    --      0.3392                 4.8566                 0.1170

                      7                      8                      9
                      A                      A                      A
 Frequencies --    255.3180               275.7325               284.3276
 Red. masses --      2.0580                 1.3019                 1.1297
 Frc consts  --      0.0790                 0.0583                 0.0538
 IR Inten    --     17.1585                 5.7165                 5.8565

                     10                     11                     12
                      A                      A                      A
 Frequencies --    290.5234               297.2542               316.3056
 Red. masses --      1.3160                 1.4947                 1.8146
 Frc consts  --      0.0654                 0.0778                 0.1070
 IR Inten    --     51.1551                 3.4343                45.7288

                     13                     14                     15
                      A                      A                      A
 Frequencies --    330.8979               340.6118               350.2853
 Red. masses --      2.5832                 2.2450                 1.9632
 Frc consts  --      0.1666                 0.1535                 0.1419
 IR Inten    --      1.9923                 7.6862                 6.1328

                     16                     17                     18
                      A                      A                      A
 Frequencies --    377.6957               392.2187               409.0960
 Red. masses --      2.3075                 2.2731                 2.2599
 Frc consts  --      0.1939                 0.2060                 0.2228
 IR Inten    --      2.9059                11.1108                 1.2250

                     19                     20                     21
                      A                      A                      A
 Frequencies --    444.5247               471.9936               499.5213
 Red. masses --      2.0131                 2.3276                 2.4274
 Frc consts  --      0.2344                 0.3055                 0.3569
 IR Inten    --      0.3476                 4.5428                 1.2931

                     22                     23                     24
                      A                      A                      A
 Frequencies --    513.4095               601.0452               777.0772
 Red. masses --      2.6395                 2.6151                 3.1141
 Frc consts  --      0.4099                 0.5566                 1.1079
 IR Inten    --      2.3383                 9.1020                 4.6008

                     25                     26                     27
                      A                      A                      A
 Frequencies --    784.5041               844.7176               858.6806
 Red. masses --      2.9013                 1.8401                 2.2345
 Frc consts  --      1.0520                 0.7736                 0.9707
 IR Inten    --     31.4762                 8.2569                29.5158

                     28                     29                     30
                      A                      A                      A
 Frequencies --    867.9994               890.8127               905.9758
 Red. masses --      1.4971                 1.7242                 2.0017
 Frc consts  --      0.6645                 0.8061                 0.9680
 IR Inten    --      0.7891                69.5923                79.6769

                     31                     32                     33
                      A                      A                      A
 Frequencies --    918.5594               940.6461               949.2169
 Red. masses --      1.6795                 1.6485                 1.8632
 Frc consts  --      0.8349                 0.8594                 0.9891
 IR Inten    --    262.9847                29.8745                83.4695

                     34                     35                     36
                      A                      A                      A
 Frequencies --    961.6553               971.5350               990.0331
 Red. masses --      1.6753                 1.6889                 1.5825
 Frc consts  --      0.9128                 0.9392                 0.9139
 IR Inten    --     22.7252                38.9365                 3.9455

                     37                     38                     39
                      A                      A                      A
 Frequencies --    995.8264              1042.8879              1057.0209
 Red. masses --      1.6083                 1.4960                 1.7402
 Frc consts  --      0.9397                 0.9587                 1.1456
 IR Inten    --      7.7813                 1.2949                 8.5417

                     40                     41                     42
                      A                      A                      A
 Frequencies --   1083.5947              1103.0879              1118.2666
 Red. masses --      2.0128                 2.3530                 1.4752
 Frc consts  --      1.3925                 1.6869                 1.0869
 IR Inten    --     16.4918                 9.1330                 1.7276

                     43                     44                     45
                      A                      A                      A
 Frequencies --   1132.8677              1146.5970              1180.5119
 Red. masses --      2.2984                 1.7249                 1.4136
 Frc consts  --      1.7379                 1.3361                 1.1607
 IR Inten    --      7.2292                17.8636                 7.9721

                     46                     47                     48
                      A                      A                      A
 Frequencies --   1205.9014              1228.6507              1241.9760
 Red. masses --      1.6971                 2.1820                 2.6690
 Frc consts  --      1.4540                 1.9407                 2.4256
 IR Inten    --      1.9601                12.3926                 6.3969

                     49                     50                     51
                      A                      A                      A
 Frequencies --   1256.8705              1277.4755              1296.1315
 Red. masses --      1.8809                 2.0608                 1.4291
 Frc consts  --      1.7506                 1.9815                 1.4145
 IR Inten    --     15.1559                 3.2961                 1.3174

                     52                     53                     54
                      A                      A                      A
 Frequencies --   1329.2621              1349.0825              1366.7451
 Red. masses --      1.3483                 1.4699                 1.3885
 Frc consts  --      1.4036                 1.5762                 1.5282
 IR Inten    --      7.5003                 0.1678                 0.6180

                     55                     56                     57
                      A                      A                      A
 Frequencies --   1377.1366              1387.1877              1392.5491
 Red. masses --      1.4652                 1.2577                 1.3846
 Frc consts  --      1.6372                 1.4260                 1.5819
 IR Inten    --      3.1207                16.5981                10.6857

                     58                     59                     60
                      A                      A                      A
 Frequencies --   1408.3366              1409.7723              1420.3603
 Red. masses --      1.1900                 1.2558                 1.2808
 Frc consts  --      1.3907                 1.4706                 1.5223
 IR Inten    --      1.1463                 7.8534                 4.4249

                     61                     62                     63
                      A                      A                      A
 Frequencies --   1427.6995              1430.4295              1487.8819
 Red. masses --      1.2654                 1.3122                 1.0817
 Frc consts  --      1.5197                 1.5820                 1.4109
 IR Inten    --      8.5191                 9.5108                 0.4282

                     64                     65                     66
                      A                      A                      A
 Frequencies --   1490.7350              1493.2826              1493.6939
 Red. masses --      1.0706                 1.0597                 1.0615
 Frc consts  --      1.4018                 1.3922                 1.3954
 IR Inten    --      0.1393                 0.4777                 1.2470

                     67                     68                     69
                      A                      A                      A
 Frequencies --   1499.2088              1505.1654              1508.2937
 Red. masses --      1.0618                 1.0868                 1.0585
 Frc consts  --      1.4062                 1.4506                 1.4187
 IR Inten    --      1.5704                 0.1184                 0.3109

                     70                     71                     72
                      A                      A                      A
 Frequencies --   1513.5769              1514.9632              1519.1949
 Red. masses --      1.0591                 1.0620                 1.0532
 Frc consts  --      1.4295                 1.4361                 1.4321
 IR Inten    --     15.4226                 4.4151                 9.2158

                     73                     74                     75
                      A                      A                      A
 Frequencies --   1654.4895              1658.9819              3011.4922
 Red. masses --      1.0906                 1.0906                 1.0668
 Frc consts  --      1.7589                 1.7685                 5.7005
 IR Inten    --     36.6004                30.0359                42.8271

                     76                     77                     78
                      A                      A                      A
 Frequencies --   3015.4275              3016.7926              3020.8656
 Red. masses --      1.0594                 1.0607                 1.0683
 Frc consts  --      5.6755                 5.6875                 5.7441
 IR Inten    --      8.0032                14.6636                87.2291

                     79                     80                     81
                      A                      A                      A
 Frequencies --   3024.4024              3027.0765              3033.4528
 Red. masses --      1.0654                 1.0370                 1.0389
 Frc consts  --      5.7418                 5.5984                 5.6327
 IR Inten    --    102.5079                55.7811                72.4698

                     82                     83                     84
                      A                      A                      A
 Frequencies --   3036.8267              3055.2555              3057.8894
 Red. masses --      1.0431                 1.1034                 1.1019
 Frc consts  --      5.6679                 6.0685                 6.0709
 IR Inten    --     19.7157                73.9055                39.0730

                     85                     86                     87
                      A                      A                      A
 Frequencies --   3061.7843              3064.7480              3092.6658
 Red. masses --      1.1046                 1.1019                 1.1024
 Frc consts  --      6.1010                 6.0979                 6.2122
 IR Inten    --     40.5007               152.6328                14.6161

                     88                     89                     90
                      A                      A                      A
 Frequencies --   3096.2375              3098.5895              3100.5099
 Red. masses --      1.1007                 1.1019                 1.1023
 Frc consts  --      6.2173                 6.2331                 6.2436
 IR Inten    --     63.1158               112.4967                74.3436

                     91                     92                     93
                      A                      A                      A
 Frequencies --   3122.0278              3130.9754              3458.4209
 Red. masses --      1.0998                 1.0972                 1.0505
 Frc consts  --      6.3157                 6.3371                 7.4030
 IR Inten    --     60.3387                37.8172                 2.9206

                     94                     95                     96
                      A                      A                      A
 Frequencies --   3491.8512              3538.2951              3574.1922
 Red. masses --      1.0494                 1.0910                 1.0923
 Frc consts  --      7.5391                 8.0473                 8.2212
 IR Inten    --      0.5616                 0.9486                 0.0677

 - Thermochemistry -
 -------------------
 Temperature   298.150 Kelvin.  Pressure   1.00000 Atm.
 Atom     1 has atomic number  7 and mass  14.00307

 Molecular mass:   170.17830 amu.
 Principal axes and moments of inertia in atomic units:
                           1         2         3
     Eigenvalues --  1676.499322423.414803232.04356
           X            0.99971   0.02238   0.00871
           Y           -0.02243   0.99973   0.00611
           Z           -0.00857  -0.00631   0.99994
 This molecule is an asymmetric top.
 Rotational symmetry number  1.
 Warning -- assumption of classical behavior for rotation
           may cause significant error
 Rotational temperatures (Kelvin)      0.05166     0.03574     0.02680
 Rotational constants (GHZ):           1.07649     0.74471     0.55839
 Zero-point vibrational energy     832261.5 (Joules/Mol)
                                  198.91527 (Kcal/Mol)
 Warning -- explicit consideration of  23 degrees of freedom as
           vibrations may cause significant error
 Vibrational temperatures:     89.80   169.56   184.90   203.96   287.09
          (Kelvin)            353.28   367.35   396.72   409.08   418.00
                              427.68   455.09   476.09   490.06   503.98
                              543.42   564.32   588.60   639.57   679.09
                              718.70   738.68   864.77  1118.04  1128.73
                             1215.36  1235.45  1248.86  1281.68  1303.50
                             1321.60  1353.38  1365.71  1383.61  1397.82
                             1424.44  1432.77  1500.48  1520.82  1559.05
                             1587.10  1608.94  1629.94  1649.70  1698.49
                             1735.02  1767.75  1786.93  1808.36  1838.00
                             1864.84  1912.51  1941.03  1966.44  1981.39
                             1995.85  2003.57  2026.28  2028.35  2043.58
                             2054.14  2058.07  2140.73  2144.84  2148.50
                             2149.09  2157.03  2165.60  2170.10  2177.70
                             2179.69  2185.78  2380.44  2386.90  4332.87
                             4338.53  4340.49  4346.35  4351.44  4355.29
                             4364.46  4369.32  4395.83  4399.62  4405.22
                             4409.49  4449.66  4454.80  4458.18  4460.94
                             4491.90  4504.78  4975.90  5024.00  5090.82
                             5142.47

 Zero-point correction=                           0.316992 (Hartree/Particle)
 Thermal correction to Energy=                    0.330718
 Thermal correction to Enthalpy=                  0.331662
 Thermal correction to Gibbs Free Energy=         0.278775
 Sum of electronic and zero-point Energies=           -503.533934
 Sum of electronic and thermal Energies=              -503.520208
 Sum of electronic and thermal Enthalpies=            -503.519264
 Sum of electronic and thermal Free Energies=         -503.572151

                     E (Thermal)             CV                S
                      KCal/Mol        Cal/Mol-Kelvin    Cal/Mol-Kelvin
 Total                  207.529             55.227            111.311
 Electronic               0.000              0.000              0.000
 Translational            0.889              2.981             41.303
 Rotational               0.889              2.981             30.952
 Vibrational            205.751             49.265             39.056
 Vibration     1          0.597              1.972              4.379
 Vibration     2          0.608              1.935              3.135
 Vibration     3          0.611              1.925              2.968
 Vibration     4          0.615              1.911              2.780
 Vibration     5          0.638              1.841              2.137
 Vibration     6          0.660              1.770              1.762
 Vibration     7          0.666              1.754              1.694
 Vibration     8          0.677              1.718              1.560
 Vibration     9          0.683              1.703              1.507
 Vibration    10          0.686              1.691              1.471
 Vibration    11          0.691              1.679              1.432
 Vibration    12          0.703              1.642              1.329
 Vibration    13          0.713              1.614              1.256
 Vibration    14          0.720              1.594              1.209
 Vibration    15          0.727              1.575              1.165
 Vibration    16          0.748              1.518              1.048
 Vibration    17          0.760              1.487              0.992
 Vibration    18          0.773              1.450              0.930
 Vibration    19          0.804              1.373              0.813
 Vibration    20          0.829              1.312              0.732
 Vibration    21          0.855              1.251              0.659
 Vibration    22          0.868              1.220              0.625
 Vibration    23          0.959              1.030              0.448

 Optimization completed.
    -- Stationary point found.
 Normal termination of Gaussian 16 at Mon Jul 22 18:02:31 2024.
 Gaussian 16:  ES64L-G16RevA.03 25-Dec-2016

 ----------------------------------------------------------------------
 # TD(NStates=10, Root=1) B3LYP/6-31G** SCRF=(Solvent=water) volume pop
 =NPA density=current Geom=AllCheck Guess=Read
 ----------------------------------------------------------------------

 Structure from the checkpoint file:  "RNLHGQLZWXBQNY-SCZZXKLOSA-N_conf_3_2.chk"
 ----------------------------------
 RNLHGQLZWXBQNY-SCZZXKLOSA-N_conf_3
 ----------------------------------
 Charge =  0 Multiplicity = 1

                         Standard orientation:
 ---------------------------------------------------------------------
 Center     Atomic      Atomic             Coordinates (Angstroms)
 Number     Number       Type             X           Y           Z
 ---------------------------------------------------------------------
      1          7           0       -2.033558    2.595112   -0.085899
      2          6           0       -1.263999    1.363138   -0.335601
      3          6           0        0.216022    1.627132    0.001231
      4          6           0        1.101854    0.346373    0.138291
      5          6           0        2.436548    0.622452   -0.619986
      6          7           0        3.481726   -0.405610   -0.608206
      7          6           0        0.390727   -0.862194   -0.521350
      8          6           0       -1.064690   -1.182602   -0.054160
      9          6           0       -1.829022   -1.782027   -1.254042
     10          6           0       -1.773004    0.120640    0.410873
     11          6           0       -1.081590   -2.224765    1.081418
     12          6           0        1.426510    0.086233    1.624267
     13          1           0       -2.050899    2.766459    0.920197
     14          1           0       -3.006934    2.432608   -0.342358
     15          1           0       -1.346857    1.168444   -1.413699
     16          1           0        0.627852    2.297427   -0.763277
     17          1           0        0.254441    2.190226    0.943551
     18          1           0        2.873960    1.542099   -0.208857
     19          1           0        2.195066    0.837147   -1.669392
     20          1           0        3.119457   -1.275647   -0.992201
     21          1           0        3.753334   -0.615757    0.349735
     22          1           0        0.363337   -0.664150   -1.601517
     23          1           0        1.004987   -1.763283   -0.399664
     24          1           0       -1.936191   -1.054874   -2.066724
     25          1           0       -2.833417   -2.104926   -0.957119
     26          1           0       -1.301625   -2.654223   -1.657633
     27          1           0       -2.857140    0.019465    0.268737
     28          1           0       -1.619838    0.277567    1.487762
     29          1           0       -2.109880   -2.422518    1.406546
     30          1           0       -0.516287   -1.892644    1.956194
     31          1           0       -0.650542   -3.175199    0.745362
     32          1           0        1.981390   -0.848510    1.760579
     33          1           0        0.524962    0.024950    2.238265
     34          1           0        2.037504    0.902533    2.028603
 ---------------------------------------------------------------------

 SCF Done:  E(RB3LYP) =  -503.850925548     A.U. after    1 cycles

 Excitation energies and oscillator strengths:

 Excited State   1:      Singlet-A      7.2273 eV  171.55 nm  f=0.0039  <S**2>=0.000
      47 -> 49         0.21316
      47 -> 50         0.21812
      48 -> 49         0.59902
      48 -> 50         0.15908
 This state for optimization and/or second-order correction.
 Total Energy, E(TD-HF/TD-DFT) =  -503.585327347
 Copying the excited state density for this state as the 1-particle RhoCI density.

 Excited State   2:      Singlet-A      7.3771 eV  168.07 nm  f=0.0329  <S**2>=0.000
      47 -> 49         0.50422
      47 -> 50        -0.12588
      47 -> 51         0.19024
      48 -> 49        -0.21035
      48 -> 50         0.34100
      48 -> 51        -0.15902

 Excited State   3:      Singlet-A      7.8023 eV  158.91 nm  f=0.0110  <S**2>=0.000
      47 -> 49         0.28353
      47 -> 50         0.26669
      47 -> 51        -0.30356
      48 -> 49        -0.23943
      48 -> 50        -0.10386
      48 -> 51         0.41311

 Excited State   4:      Singlet-A      7.8933 eV  157.07 nm  f=0.0098  <S**2>=0.000
      47 -> 49        -0.33010
      47 -> 50         0.22439
      48 -> 49        -0.13289
      48 -> 50         0.51648
      48 -> 51         0.16123

 Excited State   5:      Singlet-A      8.0628 eV  153.77 nm  f=0.0121  <S**2>=0.000
      47 -> 50         0.46321
      47 -> 51         0.26043
      47 -> 52        -0.12407
      48 -> 49        -0.11357
      48 -> 50        -0.16438
      48 -> 51        -0.26539
      48 -> 52         0.24360

 Excited State   6:      Singlet-A      8.3752 eV  148.04 nm  f=0.0295  <S**2>=0.000
      47 -> 50        -0.12926
      47 -> 51         0.44988
      47 -> 53        -0.14694
      48 -> 50        -0.12958
      48 -> 51         0.37566
      48 -> 53        -0.28840

 Excited State   7:      Singlet-A      8.3945 eV  147.70 nm  f=0.0427  <S**2>=0.000
      47 -> 50        -0.16354
      47 -> 51        -0.17633
      47 -> 52         0.18641
      47 -> 53        -0.13618
      47 -> 54        -0.12851
      48 -> 52         0.51091
      48 -> 53        -0.20803
      48 -> 54        -0.18290

 Excited State   8:      Singlet-A      8.5059 eV  145.76 nm  f=0.0064  <S**2>=0.000
      47 -> 50        -0.14304
      47 -> 51         0.14193
      47 -> 52        -0.22800
      47 -> 53         0.17919
      48 -> 51         0.20822
      48 -> 52         0.37955
      48 -> 53         0.39486
      48 -> 54         0.11342

 Excited State   9:      Singlet-A      8.5895 eV  144.34 nm  f=0.0137  <S**2>=0.000
      47 -> 50         0.12893
      47 -> 51         0.18033
      47 -> 52         0.51105
      48 -> 50        -0.12958
      48 -> 53         0.33524
      48 -> 54        -0.16999

 Excited State  10:      Singlet-A      8.7215 eV  142.16 nm  f=0.0126  <S**2>=0.000
      47 -> 52         0.30547
      47 -> 53         0.44355
      48 -> 53        -0.20362
      48 -> 54         0.35996

 The electronic state is 1-A.
 Alpha  occ. eigenvalues --  -14.30993 -14.30792 -10.20429 -10.19884 -10.19151
 Alpha  occ. eigenvalues --  -10.18845 -10.17119 -10.17085 -10.16850 -10.16800
 Alpha  occ. eigenvalues --  -10.16728 -10.16633  -0.88304  -0.87489  -0.82233
 Alpha  occ. eigenvalues --   -0.77834  -0.72052  -0.68322  -0.67290  -0.67043
 Alpha  occ. eigenvalues --   -0.64976  -0.58069  -0.54889  -0.51313  -0.48681
 Alpha  occ. eigenvalues --   -0.47773  -0.46638  -0.44978  -0.44287  -0.42469
 Alpha  occ. eigenvalues --   -0.41804  -0.41481  -0.40079  -0.39244  -0.38368
 Alpha  occ. eigenvalues --   -0.37264  -0.36285  -0.35676  -0.34987  -0.33936
 Alpha  occ. eigenvalues --   -0.33752  -0.32663  -0.32048  -0.30119  -0.29791
 Alpha  occ. eigenvalues --   -0.28922  -0.23544  -0.22890
 Alpha virt. eigenvalues --    0.07180   0.09128   0.09851   0.10949   0.11648
 Alpha virt. eigenvalues --    0.12870   0.13049   0.14195   0.15161   0.15423
 Alpha virt. eigenvalues --    0.15487   0.16206   0.17223   0.17846   0.18287

 Mulliken charges:
               1
     1  N   -0.595562
     2  C    0.043342
     3  C   -0.160353
     4  C    0.035507
     5  C   -0.094694
     6  N   -0.216862
     7  C   -0.102650
     8  C    0.047584
     9  C   -0.303089
    10  C   -0.152483
    11  C   -0.301255
    12  C   -0.250450
    13  H    0.242645
    14  H    0.245165
    15  H    0.086878
    16  H    0.101742
    17  H    0.086432
    18  H    0.125693
    19  H    0.103275
    20  H    0.094548
    21  H    0.110938
    22  H    0.047190
    23  H   -0.001694
    24  H    0.088886
    25  H    0.090199
    26  H    0.089519
    27  H    0.062639
    28  H    0.060729
    29  H    0.085695
    30  H    0.088346
    31  H    0.086210
    32  H    0.029173
    33  H    0.061633
    34  H    0.065125
 Sum of Mulliken charges =  -0.00000

 Dipole moment (field-independent basis, Debye):
    X=              0.3001    Y=              0.9530    Z=             -0.1642  Tot=              1.0125
 Quadrupole moment (field-independent basis, Debye-Ang):
   XX=            -73.0528   YY=            -85.8681   ZZ=            -82.1409
   XY=             -0.0813   XZ=             -2.7057   YZ=              2.5207

 Summary of Natural Population Analysis:

                                       Natural Population
                Natural  -----------------------------------------------
    Atom  No    Charge         Core      Valence    Rydberg      Total
 -----------------------------------------------------------------------
      N    1   -0.85731      1.99961     5.84317    0.01453     7.85731
      C    2   -0.05815      1.99919     4.04120    0.01777     6.05815
      C    3   -0.46745      1.99921     4.45233    0.01591     6.46745
      C    4   -0.02625      1.99909     4.01388    0.01328     6.02625
      C    5   -0.33214      1.99923     4.31183    0.02109     6.33214
      N    6   -0.47162      1.99942     5.45476    0.01744     7.47162
      C    7   -0.47499      1.99919     4.45946    0.01635     6.47499
      C    8   -0.04797      1.99914     4.03483    0.01400     6.04797
      C    9   -0.68016      1.99938     4.67098    0.00979     6.68016
      C   10   -0.48046      1.99921     4.46685    0.01440     6.48046
      C   11   -0.67922      1.99937     4.67027    0.00958     6.67922
      C   12   -0.69781      1.99935     4.68724    0.01122     6.69781
      H   13    0.37582      0.00000     0.61590    0.00828     0.62418
      H   14    0.38283      0.00000     0.60818    0.00899     0.61717
      H   15    0.22883      0.00000     0.76142    0.00975     0.77117
      H   16    0.24585      0.00000     0.74916    0.00499     0.75415
      H   17    0.23196      0.00000     0.75873    0.00931     0.76804
      H   18    0.25307      0.00000     0.73544    0.01150     0.74693
      H   19    0.23416      0.00000     0.74777    0.01807     0.76584
      H   20    0.25852      0.00000     0.67781    0.06366     0.74148
      H   21    0.27437      0.00000     0.66537    0.06026     0.72563
      H   22    0.21354      0.00000     0.77016    0.01630     0.78646
      H   23    0.17604      0.00000     0.79387    0.03009     0.82396
      H   24    0.22469      0.00000     0.77053    0.00479     0.77531
      H   25    0.22946      0.00000     0.76684    0.00370     0.77054
      H   26    0.22816      0.00000     0.76773    0.00411     0.77184
      H   27    0.22283      0.00000     0.76803    0.00915     0.77717
      H   28    0.21553      0.00000     0.77309    0.01138     0.78447
      H   29    0.22515      0.00000     0.77078    0.00407     0.77485
      H   30    0.22424      0.00000     0.76985    0.00590     0.77576
      H   31    0.22722      0.00000     0.76836    0.00442     0.77278
      H   32    0.18490      0.00000     0.79126    0.02384     0.81510
      H   33    0.20071      0.00000     0.78497    0.01432     0.79929
      H   34    0.21566      0.00000     0.77189    0.01245     0.78434
 =======================================================================
   * Total *    0.00000     23.99137    71.49394    0.51468    96.00000

 Normal termination of Gaussian 16 at Mon Jul 22 18:13:17 2024.
