 Gaussian 16, Revision A.03,

 -------------------------------------------------------
 # opt=CalcFc B3LYP/6-31G** SCRF=(Solvent=water) scf=xqc
 -------------------------------------------------------

 ----------------------------------
 GLUUGHFHXGJENI-UHFFFAOYSA-N_conf_0
 ----------------------------------
 Symbolic Z-matrix:
 Charge =  0 Multiplicity = 1

 SCF Done:  E(RB3LYP) =  -267.948908462     A.U. after    9 cycles
 SCF Done:  E(RB3LYP) =  -267.949813049     A.U. after    8 cycles
 SCF Done:  E(RB3LYP) =  -267.949821082     A.U. after    7 cycles
 Optimization completed.
    -- Stationary point found.
 Normal termination of Gaussian 16 at Wed Jul 17 18:51:29 2024.

 ----------------------------------------------------------------------
 # freq B3LYP/6-31G** SCRF=(Solvent=water) volume NMR pop=NPA density=c
 urrent Geom=AllCheck Guess=Read
 ----------------------------------------------------------------------

 Structure from the checkpoint file:  "GLUUGHFHXGJENI-UHFFFAOYSA-N_conf_0_1.chk"
 ----------------------------------
 GLUUGHFHXGJENI-UHFFFAOYSA-N_conf_0
 ----------------------------------
 Charge =  0 Multiplicity = 1

 SCF Done:  E(RB3LYP) =  -267.949821082     A.U. after    1 cycles

      1  N    Isotropic =   220.8060   Anisotropy =    56.4504

      2  C    Isotropic =   144.0852   Anisotropy =    18.2199

      3  C    Isotropic =   144.0852   Anisotropy =    18.2199

      4  N    Isotropic =   220.8060   Anisotropy =    56.4503

      5  C    Isotropic =   144.0852   Anisotropy =    18.2199

      6  C    Isotropic =   144.0852   Anisotropy =    18.2199

      7  H    Isotropic =    31.2954   Anisotropy =    12.0656

      8  H    Isotropic =    29.2007   Anisotropy =     8.0636

      9  H    Isotropic =    29.2884   Anisotropy =     7.3996

     10  H    Isotropic =    29.2007   Anisotropy =     8.0636

     11  H    Isotropic =    29.2884   Anisotropy =     7.3996

     12  H    Isotropic =    31.2954   Anisotropy =    12.0656

     13  H    Isotropic =    29.2884   Anisotropy =     7.3996

     14  H    Isotropic =    29.2007   Anisotropy =     8.0636

     15  H    Isotropic =    29.2007   Anisotropy =     8.0636

     16  H    Isotropic =    29.2884   Anisotropy =     7.3996

  Exact polarizability:  77.679  -0.000  63.411   0.000   3.340  68.614
 Approx polarizability:  80.067  -0.000  70.023   0.000   4.395  77.146

                      1                      2                      3
                      A                      A                      A
 Frequencies --    247.2031               247.9181               399.2605
 Red. masses --      1.6898                 2.1473                 1.5859
 Frc consts  --      0.0608                 0.0778                 0.1489
 IR Inten    --      0.3455                32.1267                 0.0000

                      4                      5                      6
                      A                      A                      A
 Frequencies --    445.6960               479.1174               583.3376
 Red. masses --      5.0415                 2.5802                 1.3171
 Frc consts  --      0.5901                 0.3490                 0.2641
 IR Inten    --      0.0000                 0.0000                20.7198

                      7                      8                      9
                      A                      A                      A
 Frequencies --    796.5756               814.9722               831.5888
 Red. masses --      2.2651                 2.5480                 1.6021
 Frc consts  --      0.8468                 0.9971                 0.6528
 IR Inten    --      0.0000               359.6707                 0.0000

                     10                     11                     12
                      A                      A                      A
 Frequencies --    854.2265               882.2647               962.9389
 Red. masses --      1.5176                 2.5133                 1.3752
 Frc consts  --      0.6525                 1.1526                 0.7513
 IR Inten    --      0.0000                 4.1007                57.5376

                     13                     14                     15
                      A                      A                      A
 Frequencies --   1001.6427              1010.7437              1046.1883
 Red. masses --      1.4796                 2.4477                 2.4950
 Frc consts  --      0.8746                 1.4733                 1.6090
 IR Inten    --     23.9452                 0.0000                16.9917

                     16                     17                     18
                      A                      A                      A
 Frequencies --   1126.7207              1136.8202              1172.4885
 Red. masses --      4.7211                 2.4754                 1.2394
 Frc consts  --      3.5312                 1.8849                 1.0039
 IR Inten    --     74.0186                 0.0000                 0.0000

                     19                     20                     21
                      A                      A                      A
 Frequencies --   1204.8549              1273.3715              1338.0459
 Red. masses --      2.0289                 1.2163                 1.2827
 Frc consts  --      1.7353                 1.1620                 1.3530
 IR Inten    --      0.0000                 8.7562                 0.0000

                     22                     23                     24
                      A                      A                      A
 Frequencies --   1346.1999              1356.6419              1372.9902
 Red. masses --      1.2731                 1.2628                 1.2904
 Frc consts  --      1.3594                 1.3694                 1.4332
 IR Inten    --     13.4819                 0.0000                 7.3410

                     25                     26                     27
                      A                      A                      A
 Frequencies --   1401.9923              1408.0971              1468.6554
 Red. masses --      1.3086                 1.3370                 1.0766
 Frc consts  --      1.5155                 1.5618                 1.3682
 IR Inten    --      0.0000                11.6584                 0.0000

                     28                     29                     30
                      A                      A                      A
 Frequencies --   1481.0881              1484.4620              1488.5231
 Red. masses --      1.2011                 1.0822                 1.1080
 Frc consts  --      1.5524                 1.4051                 1.4464
 IR Inten    --     35.0385                 1.3848                 8.3514

                     31                     32                     33
                      A                      A                      A
 Frequencies --   1493.0698              1503.0331              3009.5665
 Red. masses --      1.0998                 1.1788                 1.0651
 Frc consts  --      1.4445                 1.5690                 5.6841
 IR Inten    --      0.0000                 0.0000                96.9313

                     34                     35                     36
                      A                      A                      A
 Frequencies --   3014.8237              3017.2711              3017.5620
 Red. masses --      1.0606                 1.0619                 1.0682
 Frc consts  --      5.6795                 5.6959                 5.7310
 IR Inten    --      0.0000               178.9262                 0.0000

                     37                     38                     39
                      A                      A                      A
 Frequencies --   3069.4175              3070.5196              3074.2608
 Red. masses --      1.0974                 1.0965                 1.1055
 Frc consts  --      6.0914                 6.0906                 6.1556
 IR Inten    --    173.1385                 0.0000               164.8041

                     40                     41                     42
                      A                      A                      A
 Frequencies --   3075.0806              3478.3259              3479.3106
 Red. masses --      1.1048                 1.0738                 1.0737
 Frc consts  --      6.1551                 7.6543                 7.6583
 IR Inten    --      0.0000                 4.1171                 0.0000

 - Thermochemistry -
 -------------------
 Temperature   298.150 Kelvin.  Pressure   1.00000 Atm.
 Atom     1 has atomic number  7 and mass  14.00307

 Molecular mass:    86.08440 amu.
 Principal axes and moments of inertia in atomic units:
                           1         2         3
     Eigenvalues --   386.82270 403.76413 695.67445
           X            0.00000   1.00000   0.00000
           Y            0.99999  -0.00000   0.00539
           Z           -0.00539   0.00000   0.99999
 This molecule is an asymmetric top.
 Rotational symmetry number  1.
 Rotational temperatures (Kelvin)      0.22391     0.21452     0.12450
 Rotational constants (GHZ):           4.66555     4.46979     2.59423
 Zero-point vibrational energy     388588.2 (Joules/Mol)
                                   92.87480 (Kcal/Mol)
 Warning -- explicit consideration of   6 degrees of freedom as
           vibrations may cause significant error
 Vibrational temperatures:    355.67   356.70   574.45   641.26   689.34
          (Kelvin)            839.29  1146.09  1172.56  1196.47  1229.04
                             1269.38  1385.45  1441.14  1454.23  1505.23
                             1621.10  1635.63  1686.95  1733.52  1832.10
                             1925.15  1936.88  1951.91  1975.43  2017.15
                             2025.94  2113.07  2130.96  2135.81  2141.65
                             2148.19  2162.53  4330.09  4337.66  4341.18
                             4341.60  4416.21  4417.79  4423.18  4424.36
                             5004.54  5005.95

 Zero-point correction=                           0.148005 (Hartree/Particle)
 Thermal correction to Energy=                    0.153469
 Thermal correction to Enthalpy=                  0.154413
 Thermal correction to Gibbs Free Energy=         0.119433
 Sum of electronic and zero-point Energies=           -267.801816
 Sum of electronic and thermal Energies=              -267.796352
 Sum of electronic and thermal Enthalpies=            -267.795408
 Sum of electronic and thermal Free Energies=         -267.830388

                     E (Thermal)             CV                S
                      KCal/Mol        Cal/Mol-Kelvin    Cal/Mol-Kelvin
 Total                   96.303             21.436             73.620
 Electronic               0.000              0.000              0.000
 Translational            0.889              2.981             39.271
 Rotational               0.889              2.981             26.188
 Vibrational             94.526             15.474              8.161
 Vibration     1          0.661              1.767              1.750
 Vibration     2          0.662              1.766              1.745
 Vibration     3          0.765              1.472              0.965
 Vibration     4          0.805              1.370              0.809
 Vibration     5          0.836              1.296              0.712
 Vibration     6          0.940              1.067              0.479

 Optimization completed.
    -- Stationary point found.
 Normal termination of Gaussian 16 at Wed Jul 17 18:54:37 2024.
 Gaussian 16:  ES64L-G16RevA.03 25-Dec-2016

 ----------------------------------------------------------------------
 # TD(NStates=10, Root=1) B3LYP/6-31G** SCRF=(Solvent=water) volume pop
 =NPA density=current Geom=AllCheck Guess=Read
 ----------------------------------------------------------------------

 Structure from the checkpoint file:  "GLUUGHFHXGJENI-UHFFFAOYSA-N_conf_0_2.chk"
 ----------------------------------
 GLUUGHFHXGJENI-UHFFFAOYSA-N_conf_0
 ----------------------------------
 Charge =  0 Multiplicity = 1

                         Standard orientation:
 ---------------------------------------------------------------------
 Center     Atomic      Atomic             Coordinates (Angstroms)
 Number     Number       Type             X           Y           Z
 ---------------------------------------------------------------------
      1          7           0       -0.000000   -1.466051   -0.171193
      2          6           0       -1.214347   -0.734485    0.226088
      3          6           0       -1.214346    0.734486   -0.226088
      4          7           0        0.000000    1.466051    0.171193
      5          6           0        1.214347    0.734485   -0.226088
      6          6           0        1.214346   -0.734486    0.226088
      7          1           0       -0.000000   -1.553050   -1.187746
      8          1           0       -2.089276   -1.261633   -0.172606
      9          1           0       -1.284635   -0.772739    1.322765
     10          1           0       -2.089275    1.261634    0.172606
     11          1           0       -1.284635    0.772739   -1.322765
     12          1           0        0.000000    1.553051    1.187746
     13          1           0        1.284635    0.772739   -1.322765
     14          1           0        2.089276    1.261633    0.172606
     15          1           0        2.089275   -1.261634   -0.172606
     16          1           0        1.284634   -0.772740    1.322765
 ---------------------------------------------------------------------

 SCF Done:  E(RB3LYP) =  -267.949821082     A.U. after    1 cycles

 Excitation energies and oscillator strengths:

 Excited State   1:      Singlet-A      6.5902 eV  188.13 nm  f=0.0000  <S**2>=0.000
      24 -> 25         0.70141
 This state for optimization and/or second-order correction.
 Total Energy, E(TD-HF/TD-DFT) =  -267.707636495
 Copying the excited state density for this state as the 1-particle RhoCI density.

 Excited State   2:      Singlet-A      6.9774 eV  177.69 nm  f=0.0743  <S**2>=0.000
      24 -> 26         0.69901

 Excited State   3:      Singlet-A      7.8439 eV  158.06 nm  f=0.0138  <S**2>=0.000
      23 -> 25        -0.24811
      24 -> 28         0.65717

 Excited State   4:      Singlet-A      7.9688 eV  155.59 nm  f=0.1129  <S**2>=0.000
      24 -> 27         0.70566

 Excited State   5:      Singlet-A      8.2635 eV  150.04 nm  f=0.0000  <S**2>=0.000
      24 -> 29         0.70044

 Excited State   6:      Singlet-A      8.4349 eV  146.99 nm  f=0.1307  <S**2>=0.000
      23 -> 25         0.65239
      24 -> 28         0.25314

 Excited State   7:      Singlet-A      8.6032 eV  144.11 nm  f=0.0119  <S**2>=0.000
      24 -> 30         0.70137

 Excited State   8:      Singlet-A      8.6391 eV  143.52 nm  f=0.0000  <S**2>=0.000
      23 -> 26         0.61535
      24 -> 32        -0.32460
      24 -> 35         0.10975

 Excited State   9:      Singlet-A      8.8803 eV  139.62 nm  f=0.0000  <S**2>=0.000
      24 -> 31         0.70357

 Excited State  10:      Singlet-A      8.9537 eV  138.47 nm  f=0.0000  <S**2>=0.000
      23 -> 26         0.31660
      24 -> 32         0.62528

 The electronic state is 1-A.
 Alpha  occ. eigenvalues --  -14.31502 -14.31502 -10.20008 -10.20007 -10.19988
 Alpha  occ. eigenvalues --  -10.19987  -0.92135  -0.86718  -0.75037  -0.65652
 Alpha  occ. eigenvalues --   -0.62829  -0.58243  -0.49678  -0.45084  -0.44749
 Alpha  occ. eigenvalues --   -0.44034  -0.42034  -0.38441  -0.37887  -0.34591
 Alpha  occ. eigenvalues --   -0.33249  -0.33118  -0.25842  -0.19515
 Alpha virt. eigenvalues --    0.08767   0.10415   0.13612   0.13669   0.14968
 Alpha virt. eigenvalues --    0.16161   0.17263   0.17405   0.18615   0.18748
 Alpha virt. eigenvalues --    0.20338   0.24112   0.25026   0.26542   0.29005

 Mulliken charges:
               1
     1  N   -0.291836
     2  C   -0.050923
     3  C   -0.050923
     4  N   -0.291836
     5  C   -0.050923
     6  C   -0.050923
     7  H    0.075786
     8  H    0.066702
     9  H    0.092246
    10  H    0.066702
    11  H    0.092246
    12  H    0.075786
    13  H    0.092246
    14  H    0.066702
    15  H    0.066702
    16  H    0.092246
 Sum of Mulliken charges =  -0.00000

 Dipole moment (field-independent basis, Debye):
    X=              0.0000    Y=             -0.0000    Z=             -0.0000  Tot=              0.0000
 Quadrupole moment (field-independent basis, Debye-Ang):
   XX=            -37.9040   YY=            -45.2170   ZZ=            -40.2759
   XY=             -0.0000   XZ=             -0.0000   YZ=             -0.4932

 Summary of Natural Population Analysis:

                                       Natural Population
                Natural  -----------------------------------------------
    Atom  No    Charge         Core      Valence    Rydberg      Total
 -----------------------------------------------------------------------
      N    1   -0.48335      1.99949     5.46717    0.01669     7.48335
      C    2   -0.31921      1.99934     4.30079    0.01909     6.31921
      C    3   -0.31921      1.99934     4.30079    0.01909     6.31921
      N    4   -0.48335      1.99949     5.46717    0.01669     7.48335
      C    5   -0.31921      1.99934     4.30079    0.01909     6.31921
      C    6   -0.31921      1.99934     4.30079    0.01909     6.31921
      H    7    0.26133      0.00000     0.66547    0.07320     0.73867
      H    8    0.20833      0.00000     0.76696    0.02471     0.79167
      H    9    0.22189      0.00000     0.75610    0.02201     0.77811
      H   10    0.20833      0.00000     0.76696    0.02471     0.79167
      H   11    0.22189      0.00000     0.75610    0.02201     0.77811
      H   12    0.26133      0.00000     0.66547    0.07320     0.73867
      H   13    0.22189      0.00000     0.75610    0.02201     0.77811
      H   14    0.20833      0.00000     0.76696    0.02471     0.79167
      H   15    0.20833      0.00000     0.76696    0.02471     0.79167
      H   16    0.22189      0.00000     0.75610    0.02201     0.77811
 =======================================================================
   * Total *   -0.00000     11.99633    35.56068    0.44299    48.00000

 Normal termination of Gaussian 16 at Wed Jul 17 18:59:13 2024.
