 Gaussian 16, Revision A.03,

 -------------------------------------------------------
 # opt=CalcFc B3LYP/6-31G** SCRF=(Solvent=water) scf=xqc
 -------------------------------------------------------

 ----------------------------------
 IBOFVQJTBBUKMU-UHFFFAOYSA-N_conf_2
 ----------------------------------
 Symbolic Z-matrix:
 Charge =  0 Multiplicity = 1

 SCF Done:  E(RB3LYP) =  -1532.54791656     A.U. after   13 cycles
 SCF Done:  E(RB3LYP) =  -1532.55278532     A.U. after   11 cycles
 SCF Done:  E(RB3LYP) =  -1532.55307926     A.U. after   10 cycles
 SCF Done:  E(RB3LYP) =  -1532.55309067     A.U. after   10 cycles
 SCF Done:  E(RB3LYP) =  -1532.55309573     A.U. after    9 cycles
 SCF Done:  E(RB3LYP) =  -1532.55309607     A.U. after    7 cycles
 SCF Done:  E(RB3LYP) =  -1532.55309623     A.U. after    8 cycles
 SCF Done:  E(RB3LYP) =  -1532.55309621     A.U. after    6 cycles
 Optimization completed.
    -- Stationary point found.
 Normal termination of Gaussian 16 at Wed Jul 17 22:37:16 2024.

 ----------------------------------------------------------------------
 # freq B3LYP/6-31G** SCRF=(Solvent=water) volume NMR pop=NPA density=c
 urrent Geom=AllCheck Guess=Read
 ----------------------------------------------------------------------

 Structure from the checkpoint file:  "IBOFVQJTBBUKMU-UHFFFAOYSA-N_conf_2_1.chk"
 ----------------------------------
 IBOFVQJTBBUKMU-UHFFFAOYSA-N_conf_2
 ----------------------------------
 Charge =  0 Multiplicity = 1

 SCF Done:  E(RB3LYP) =  -1532.55309621     A.U. after    1 cycles

      1  N    Isotropic =   201.4398   Anisotropy =    52.8379

      2  C    Isotropic =    55.1516   Anisotropy =   149.4924

      3  C    Isotropic =    79.9698   Anisotropy =   128.9708

      4  C    Isotropic =    67.7347   Anisotropy =   162.0097

      5  C    Isotropic =    63.6804   Anisotropy =   161.8207

      6  C    Isotropic =   149.8686   Anisotropy =    21.8868

      7  C    Isotropic =    63.5849   Anisotropy =   161.0014

      8  C    Isotropic =    67.6502   Anisotropy =   145.0527

      9  C    Isotropic =    81.6962   Anisotropy =   126.6052

     10  C    Isotropic =    55.0105   Anisotropy =   149.6354

     11  N    Isotropic =   201.5694   Anisotropy =    52.9102

     12  C    Isotropic =    68.5330   Anisotropy =    68.7631

     13  Cl   Isotropic =   787.1276   Anisotropy =   347.1789

     14  C    Isotropic =    66.7092   Anisotropy =   135.4513

     15  C    Isotropic =    66.7895   Anisotropy =   119.2640

     16  C    Isotropic =    70.2385   Anisotropy =    68.0029

     17  Cl   Isotropic =   789.4968   Anisotropy =   344.3341

     18  H    Isotropic =    28.1420   Anisotropy =     9.8037

     19  H    Isotropic =    28.5135   Anisotropy =    13.3735

     20  H    Isotropic =    25.0598   Anisotropy =     6.1130

     21  H    Isotropic =    24.8387   Anisotropy =     8.7419

     22  H    Isotropic =    28.2384   Anisotropy =     6.5869

     23  H    Isotropic =    28.2869   Anisotropy =     5.9409

     24  H    Isotropic =    24.6570   Anisotropy =     6.0667

     25  H    Isotropic =    25.0804   Anisotropy =     5.4052

     26  H    Isotropic =    28.1950   Anisotropy =     9.9173

     27  H    Isotropic =    28.4937   Anisotropy =    13.5913

     28  H    Isotropic =    24.8503   Anisotropy =    12.1946

     29  H    Isotropic =    24.6341   Anisotropy =     9.0293

  Exact polarizability: 285.779 -37.130 223.265  11.436 -10.510 170.118
 Approx polarizability: 315.718 -44.783 270.139  15.771 -13.684 212.062

                      1                      2                      3
                      A                      A                      A
 Frequencies --     11.0703                13.8260                39.6240
 Red. masses --      6.8973                 8.0600                 5.6663
 Frc consts  --      0.0005                 0.0009                 0.0052
 IR Inten    --      1.5809                 0.0778                 1.3414

                      4                      5                      6
                      A                      A                      A
 Frequencies --    118.3196               139.2226               169.3457
 Red. masses --      4.9970                 4.8346                 6.9305
 Frc consts  --      0.0412                 0.0552                 0.1171
 IR Inten    --      2.7287                 2.5875                 0.2794

                      7                      8                      9
                      A                      A                      A
 Frequencies --    173.1609               198.5018               241.6781
 Red. masses --      5.4105                 6.6885                 5.4433
 Frc consts  --      0.0956                 0.1553                 0.1873
 IR Inten    --      1.4348                 1.6561                 2.4281

                     10                     11                     12
                      A                      A                      A
 Frequencies --    272.5525               298.7360               322.9587
 Red. masses --      5.6245                 3.1527                 1.3731
 Frc consts  --      0.2462                 0.1658                 0.0844
 IR Inten    --      1.6689                15.3420                13.6918

                     13                     14                     15
                      A                      A                      A
 Frequencies --    325.6321               339.0474               346.9785
 Red. masses --      1.1720                 2.5656                 2.4527
 Frc consts  --      0.0732                 0.1738                 0.1740
 IR Inten    --     34.0143                12.2216                20.1674

                     16                     17                     18
                      A                      A                      A
 Frequencies --    392.8840               394.9611               441.7646
 Red. masses --      7.2749                 5.1020                 3.2596
 Frc consts  --      0.6616                 0.4689                 0.3748
 IR Inten    --      1.2452                 2.2516                13.1338

                     19                     20                     21
                      A                      A                      A
 Frequencies --    447.2654               482.5222               487.1899
 Red. masses --      3.3431                 4.0895                 3.7341
 Frc consts  --      0.3940                 0.5610                 0.5222
 IR Inten    --     11.2410                 0.8456                 5.7701

                     22                     23                     24
                      A                      A                      A
 Frequencies --    511.1075               519.1596               562.4597
 Red. masses --      4.9910                 3.7226                 2.2084
 Frc consts  --      0.7682                 0.5912                 0.4116
 IR Inten    --     18.8825                71.0141               159.9716

                     25                     26                     27
                      A                      A                      A
 Frequencies --    585.0173               597.4324               637.4593
 Red. masses --      1.5186                 1.8869                 3.5511
 Frc consts  --      0.3062                 0.3968                 0.8502
 IR Inten    --    669.9638               212.9446                32.8591

                     28                     29                     30
                      A                      A                      A
 Frequencies --    693.0146               697.4387               714.5470
 Red. masses --      6.3832                 6.4663                 4.5525
 Frc consts  --      1.8062                 1.8532                 1.3695
 IR Inten    --     18.6877                44.4292                11.6240

                     31                     32                     33
                      A                      A                      A
 Frequencies --    726.4282               786.0172               806.4902
 Red. masses --      4.8279                 2.9464                 3.8981
 Frc consts  --      1.5010                 1.0725                 1.4938
 IR Inten    --     44.8029                30.2080                 2.8786

                     34                     35                     36
                      A                      A                      A
 Frequencies --    827.5841               839.8134               882.6027
 Red. masses --      1.4580                 1.6299                 2.3637
 Frc consts  --      0.5884                 0.6773                 1.0849
 IR Inten    --     51.1015                25.3226                15.2197

                     37                     38                     39
                      A                      A                      A
 Frequencies --    888.0046               903.0343               911.3950
 Red. masses --      1.5565                 3.5355                 2.1465
 Frc consts  --      0.7232                 1.6987                 1.0505
 IR Inten    --     12.3691                21.8536                31.4926

                     40                     41                     42
                      A                      A                      A
 Frequencies --    942.4370               956.3296               959.5627
 Red. masses --      1.7615                 1.3600                 1.3906
 Frc consts  --      0.9218                 0.7328                 0.7544
 IR Inten    --     31.9438                 2.3342                 6.0949

                     43                     44                     45
                      A                      A                      A
 Frequencies --   1055.8174              1056.3947              1098.0212
 Red. masses --      2.8785                 2.8159                 1.5627
 Frc consts  --      1.8906                 1.8515                 1.1101
 IR Inten    --     49.5918                15.3138                13.0170

                     46                     47                     48
                      A                      A                      A
 Frequencies --   1103.0534              1182.4183              1184.6671
 Red. masses --      1.5085                 1.2346                 1.2047
 Frc consts  --      1.0814                 1.0170                 0.9962
 IR Inten    --     28.4462                31.6265                24.4677

                     49                     50                     51
                      A                      A                      A
 Frequencies --   1201.2143              1216.8330              1225.8543
 Red. masses --      1.1567                 2.4190                 2.0669
 Frc consts  --      0.9834                 2.1103                 1.8300
 IR Inten    --      1.8567                32.7772                 8.4713

                     52                     53                     54
                      A                      A                      A
 Frequencies --   1290.8561              1303.3980              1324.8914
 Red. masses --      1.9339                 2.0378                 2.5347
 Frc consts  --      1.8987                 2.0397                 2.6214
 IR Inten    --     18.7813                24.4468                73.4100

                     55                     56                     57
                      A                      A                      A
 Frequencies --   1341.2033              1348.7915              1362.7792
 Red. masses --      1.7727                 1.7038                 3.5400
 Frc consts  --      1.8788                 1.8262                 3.8735
 IR Inten    --    103.7770                21.0173                24.6966

                     58                     59                     60
                      A                      A                      A
 Frequencies --   1366.4030              1453.2001              1456.7629
 Red. masses --      3.8037                 3.3174                 2.8942
 Frc consts  --      4.1842                 4.1277                 3.6188
 IR Inten    --     49.3802                15.4206                11.0382

                     61                     62                     63
                      A                      A                      A
 Frequencies --   1487.4409              1542.1134              1546.4665
 Red. masses --      1.1236                 2.9430                 2.9122
 Frc consts  --      1.4647                 4.1235                 4.1035
 IR Inten    --     10.1992               296.1522               104.5858

                     64                     65                     66
                      A                      A                      A
 Frequencies --   1607.2208              1611.4935              1644.4420
 Red. masses --      6.3361                 5.9967                 1.4400
 Frc consts  --      9.6433                 9.1753                 2.2943
 IR Inten    --     13.2511                 5.9181                59.9955

                     67                     68                     69
                      A                      A                      A
 Frequencies --   1645.6615              1667.3715              1669.7706
 Red. masses --      1.3682                 2.9994                 3.4938
 Frc consts  --      2.1831                 4.9130                 5.7394
 IR Inten    --     31.7779               233.8092                85.6261

                     70                     71                     72
                      A                      A                      A
 Frequencies --   3037.4836              3077.3430              3178.8675
 Red. masses --      1.0600                 1.1038                 1.0871
 Frc consts  --      5.7620                 6.1585                 6.4726
 IR Inten    --     59.9945                26.3072                21.0610

                     73                     74                     75
                      A                      A                      A
 Frequencies --   3179.2974              3194.0685              3194.6573
 Red. masses --      1.0870                 1.0947                 1.0948
 Frc consts  --      6.4738                 6.5802                 6.5830
 IR Inten    --     12.2456                19.5840                36.2355

                     76                     77                     78
                      A                      A                      A
 Frequencies --   3201.3862              3202.1470              3565.6369
 Red. masses --      1.0915                 1.0914                 1.0483
 Frc consts  --      6.5908                 6.5937                 7.8527
 IR Inten    --      2.9575                 2.7687                58.2509

                     79                     80                     81
                      A                      A                      A
 Frequencies --   3565.7818              3670.5686              3670.7806
 Red. masses --      1.0483                 1.0987                 1.0988
 Frc consts  --      7.8534                 8.7219                 8.7232
 IR Inten    --     41.2795                39.4482                39.2826

 - Thermochemistry -
 -------------------
 Temperature   298.150 Kelvin.  Pressure   1.00000 Atm.
 Atom     1 has atomic number  7 and mass  14.00307

 Molecular mass:   266.03775 amu.
 Principal axes and moments of inertia in atomic units:
                           1         2         3
     Eigenvalues --  2510.12703********************
           X            0.99995  -0.00565  -0.00803
           Y            0.00568   0.99997   0.00431
           Z            0.00800  -0.00435   0.99996
 This molecule is an asymmetric top.
 Rotational symmetry number  1.
 Warning -- assumption of classical behavior for rotation
           may cause significant error
 Rotational temperatures (Kelvin)      0.03451     0.00788     0.00728
 Rotational constants (GHZ):           0.71898     0.16428     0.15159
 Zero-point vibrational energy     588186.7 (Joules/Mol)
                                  140.57999 (Kcal/Mol)
 Warning -- explicit consideration of  26 degrees of freedom as
           vibrations may cause significant error
 Vibrational temperatures:     15.93    19.89    57.01   170.24   200.31
          (Kelvin)            243.65   249.14   285.60   347.72   392.14
                              429.81   464.67   468.51   487.81   499.22
                              565.27   568.26   635.60   643.52   694.24
                              700.96   735.37   746.95   809.25   841.71
                              859.57   917.16   997.09  1003.46  1028.07
                             1045.17  1130.90  1160.36  1190.71  1208.30
                             1269.87  1277.64  1299.26  1311.29  1355.96
                             1375.94  1380.60  1519.09  1519.92  1579.81
                             1587.05  1701.24  1704.47  1728.28  1750.75
                             1763.73  1857.25  1875.30  1906.22  1929.69
                             1940.61  1960.74  1965.95  2090.83  2095.96
                             2140.10  2218.76  2225.02  2312.43  2318.58
                             2365.99  2367.74  2398.98  2402.43  4370.26
                             4427.61  4573.68  4574.30  4595.55  4596.40
                             4606.08  4607.18  5130.16  5130.36  5281.13
                             5281.43

 Zero-point correction=                           0.224028 (Hartree/Particle)
 Thermal correction to Energy=                    0.239693
 Thermal correction to Enthalpy=                  0.240637
 Thermal correction to Gibbs Free Energy=         0.178092
 Sum of electronic and zero-point Energies=          -1532.329068
 Sum of electronic and thermal Energies=             -1532.313403
 Sum of electronic and thermal Enthalpies=           -1532.312459
 Sum of electronic and thermal Free Energies=        -1532.375004

                     E (Thermal)             CV                S
                      KCal/Mol        Cal/Mol-Kelvin    Cal/Mol-Kelvin
 Total                  150.409             60.735            131.637
 Electronic               0.000              0.000              0.000
 Translational            0.889              2.981             42.635
 Rotational               0.889              2.981             34.150
 Vibrational            148.632             54.774             54.852
 Vibration     1          0.593              1.987              7.809
 Vibration     2          0.593              1.986              7.367
 Vibration     3          0.594              1.981              5.278
 Vibration     4          0.608              1.934              3.128
 Vibration     5          0.615              1.914              2.815
 Vibration     6          0.625              1.880              2.443
 Vibration     7          0.627              1.876              2.401
 Vibration     8          0.637              1.842              2.147
 Vibration     9          0.658              1.776              1.790
 Vibration    10          0.676              1.724              1.580
 Vibration    11          0.692              1.676              1.424
 Vibration    12          0.708              1.629              1.295
 Vibration    13          0.710              1.624              1.282
 Vibration    14          0.719              1.597              1.217
 Vibration    15          0.725              1.581              1.180
 Vibration    16          0.760              1.485              0.989
 Vibration    17          0.762              1.481              0.981
 Vibration    18          0.802              1.379              0.821
 Vibration    19          0.806              1.367              0.804
 Vibration    20          0.839              1.289              0.703
 Vibration    21          0.843              1.278              0.691
 Vibration    22          0.866              1.225              0.631
 Vibration    23          0.874              1.208              0.612
 Vibration    24          0.918              1.113              0.519
 Vibration    25          0.942              1.064              0.476
 Vibration    26          0.955              1.037              0.454

 Optimization completed.
    -- Stationary point found.
 Normal termination of Gaussian 16 at Wed Jul 17 22:55:03 2024.
 Gaussian 16:  ES64L-G16RevA.03 25-Dec-2016

 ----------------------------------------------------------------------
 # TD(NStates=10, Root=1) B3LYP/6-31G** SCRF=(Solvent=water) volume pop
 =NPA density=current Geom=AllCheck Guess=Read
 ----------------------------------------------------------------------

 Structure from the checkpoint file:  "IBOFVQJTBBUKMU-UHFFFAOYSA-N_conf_2_2.chk"
 ----------------------------------
 IBOFVQJTBBUKMU-UHFFFAOYSA-N_conf_2
 ----------------------------------
 Charge =  0 Multiplicity = 1

                         Standard orientation:
 ---------------------------------------------------------------------
 Center     Atomic      Atomic             Coordinates (Angstroms)
 Number     Number       Type             X           Y           Z
 ---------------------------------------------------------------------
      1          7           0       -4.562799   -0.071719    1.792707
      2          6           0       -3.436157   -0.330901    1.024480
      3          6           0       -2.452286   -1.244275    1.457464
      4          6           0       -1.354929   -1.558912    0.667756
      5          6           0       -1.174001   -0.982344   -0.599416
      6          6           0        0.024228   -1.336344   -1.464765
      7          6           0        1.368266   -0.972556   -0.854088
      8          6           0        2.336415   -1.945262   -0.577122
      9          6           0        3.571349   -1.609124   -0.029691
     10          6           0        3.902359   -0.275874    0.274051
     11          7           0        5.107352    0.049360    0.881923
     12          6           0        2.917192    0.690793   -0.010968
     13         17           0        3.265492    2.393370    0.337540
     14          6           0        1.683677    0.359436   -0.558631
     15          6           0       -2.138595   -0.073830   -1.041140
     16          6           0       -3.239164    0.239172   -0.245016
     17         17           0       -4.428784    1.401400   -0.856823
     18          1           0       -5.009297    0.819532    1.619716
     19          1           0       -4.449180   -0.251594    2.781606
     20          1           0       -2.569633   -1.707264    2.433536
     21          1           0       -0.619165   -2.263856    1.045150
     22          1           0        0.020194   -2.412956   -1.672354
     23          1           0       -0.085841   -0.838567   -2.435512
     24          1           0        2.126168   -2.988061   -0.799090
     25          1           0        4.303355   -2.385810    0.174213
     26          1           0        5.429197    0.995800    0.726044
     27          1           0        5.845483   -0.628114    0.742472
     28          1           0        0.964123    1.148235   -0.754114
     29          1           0       -2.041438    0.398198   -2.013745
 ---------------------------------------------------------------------

 SCF Done:  E(RB3LYP) =  -1532.55309621     A.U. after    1 cycles

 Excitation energies and oscillator strengths:

 Excited State   1:      Singlet-A      4.5398 eV  273.11 nm  f=0.1689  <S**2>=0.000
      67 -> 72        -0.12683
      68 -> 71        -0.19290
      69 -> 70         0.65323
 This state for optimization and/or second-order correction.
 Total Energy, E(TD-HF/TD-DFT) =  -1532.38626214
 Copying the excited state density for this state as the 1-particle RhoCI density.

 Excited State   2:      Singlet-A      4.5805 eV  270.68 nm  f=0.0609  <S**2>=0.000
      66 -> 72         0.13029
      67 -> 73         0.10088
      68 -> 70        -0.23144
      69 -> 71         0.63746

 Excited State   3:      Singlet-A      4.8421 eV  256.05 nm  f=0.0075  <S**2>=0.000
      68 -> 70         0.60894
      68 -> 71        -0.19061
      69 -> 70        -0.11918
      69 -> 71         0.23015

 Excited State   4:      Singlet-A      4.8786 eV  254.14 nm  f=0.0241  <S**2>=0.000
      68 -> 70         0.19780
      68 -> 71         0.61346
      69 -> 70         0.17960
      69 -> 71         0.12667
      69 -> 72        -0.14868

 Excited State   5:      Singlet-A      5.0120 eV  247.38 nm  f=0.4676  <S**2>=0.000
      68 -> 71         0.15890
      69 -> 72         0.65801
      69 -> 74        -0.10556

 Excited State   6:      Singlet-A      5.1908 eV  238.85 nm  f=0.0035  <S**2>=0.000
      68 -> 70        -0.10063
      68 -> 72        -0.41346
      68 -> 74         0.20730
      69 -> 73         0.42026
      69 -> 75        -0.28768

 Excited State   7:      Singlet-A      5.3148 eV  233.28 nm  f=0.0582  <S**2>=0.000
      68 -> 73         0.17581
      68 -> 74         0.18050
      68 -> 75        -0.30986
      69 -> 72         0.15706
      69 -> 74         0.55165

 Excited State   8:      Singlet-A      5.3855 eV  230.22 nm  f=0.0336  <S**2>=0.000
      68 -> 72        -0.41703
      68 -> 74        -0.28547
      69 -> 75         0.45672

 Excited State   9:      Singlet-A      5.5093 eV  225.05 nm  f=0.1262  <S**2>=0.000
      66 -> 70         0.15572
      67 -> 71        -0.17179
      68 -> 72         0.34111
      68 -> 74        -0.12156
      69 -> 73         0.51660
      69 -> 75         0.15164

 Excited State  10:      Singlet-A      5.5935 eV  221.66 nm  f=0.1683  <S**2>=0.000
      66 -> 71        -0.11075
      68 -> 73         0.64456
      69 -> 74        -0.17574

 The electronic state is 1-A.
 Alpha  occ. eigenvalues -- -101.55453-101.55438 -14.34439 -14.34428 -10.24708
 Alpha  occ. eigenvalues --  -10.24586 -10.24202 -10.24195 -10.19879 -10.19845
 Alpha  occ. eigenvalues --  -10.19628 -10.19623 -10.19433 -10.19271 -10.19247
 Alpha  occ. eigenvalues --  -10.19197 -10.19148  -9.47051  -9.47033  -7.23418
 Alpha  occ. eigenvalues --   -7.23401  -7.22490  -7.22474  -7.22473  -7.22458
 Alpha  occ. eigenvalues --   -0.93114  -0.93091  -0.87158  -0.86897  -0.84434
 Alpha  occ. eigenvalues --   -0.83007  -0.77347  -0.74054  -0.73543  -0.72275
 Alpha  occ. eigenvalues --   -0.67513  -0.61878  -0.61779  -0.59525  -0.57248
 Alpha  occ. eigenvalues --   -0.52443  -0.52253  -0.52053  -0.51505  -0.47148
 Alpha  occ. eigenvalues --   -0.46299  -0.45317  -0.44206  -0.43852  -0.43225
 Alpha  occ. eigenvalues --   -0.42557  -0.42392  -0.40681  -0.40613  -0.38800
 Alpha  occ. eigenvalues --   -0.37714  -0.36347  -0.35184  -0.34460  -0.33850
 Alpha  occ. eigenvalues --   -0.33837  -0.32172  -0.31935  -0.31196  -0.30541
 Alpha  occ. eigenvalues --   -0.24985  -0.24924  -0.21264  -0.20322
 Alpha virt. eigenvalues --   -0.01191  -0.01065   0.00106   0.01272   0.02706
 Alpha virt. eigenvalues --    0.02871   0.09520   0.09633   0.10745   0.12467
 Alpha virt. eigenvalues --    0.12573   0.14408   0.14948   0.15391   0.16296

 Mulliken charges:
               1
     1  N   -0.629662
     2  C    0.294196
     3  C   -0.140703
     4  C   -0.146904
     5  C    0.138211
     6  C   -0.312007
     7  C    0.142894
     8  C   -0.184977
     9  C   -0.136060
    10  C    0.292861
    11  N   -0.624412
    12  C   -0.160231
    13  Cl  -0.062444
    14  C   -0.147696
    15  C   -0.169896
    16  C   -0.146905
    17  Cl  -0.048004
    18  H    0.300641
    19  H    0.301671
    20  H    0.098894
    21  H    0.093167
    22  H    0.128071
    23  H    0.127654
    24  H    0.086723
    25  H    0.096263
    26  H    0.301222
    27  H    0.302901
    28  H    0.100826
    29  H    0.103708
 Sum of Mulliken charges =  -0.00000

 Dipole moment (field-independent basis, Debye):
    X=              2.0149    Y=             -1.7028    Z=              2.4736  Tot=              3.6164
 Quadrupole moment (field-independent basis, Debye-Ang):
   XX=            -80.0685   YY=           -112.4949   ZZ=           -104.8315
   XY=             -8.0713   XZ=            -13.4421   YZ=              0.6261

 Summary of Natural Population Analysis:

                                       Natural Population
                Natural  -----------------------------------------------
    Atom  No    Charge         Core      Valence    Rydberg      Total
 -----------------------------------------------------------------------
      N    1   -0.77145      1.99948     5.76084    0.01113     7.77145
      C    2    0.16369      1.99882     3.81927    0.01821     5.83631
      C    3   -0.31622      1.99905     4.30128    0.01589     6.31622
      C    4   -0.25236      1.99904     4.23813    0.01520     6.25236
      C    5    0.00233      1.99900     3.98176    0.01691     5.99767
      C    6   -0.49347      1.99921     4.47958    0.01468     6.49347
      C    7    0.01347      1.99900     3.97090    0.01663     5.98653
      C    8   -0.29481      1.99904     4.27930    0.01647     6.29481
      C    9   -0.30281      1.99905     4.28761    0.01615     6.30281
      C   10    0.16326      1.99883     3.81948    0.01843     5.83674
      N   11   -0.76162      1.99948     5.75110    0.01105     7.76162
      C   12   -0.11358      1.99851     4.09362    0.02145     6.11358
     Cl   13   -0.04444      9.99970     7.02464    0.02010    17.04444
      C   14   -0.29863      1.99889     4.28135    0.01839     6.29863
      C   15   -0.31240      1.99890     4.29528    0.01822     6.31240
      C   16   -0.08463      1.99851     4.06492    0.02120     6.08463
     Cl   17   -0.03258      9.99970     7.01301    0.01987    17.03258
      H   18    0.42903      0.00000     0.56813    0.00283     0.57097
      H   19    0.42991      0.00000     0.56759    0.00250     0.57009
      H   20    0.24708      0.00000     0.75134    0.00157     0.75292
      H   21    0.24585      0.00000     0.75193    0.00222     0.75415
      H   22    0.26600      0.00000     0.73196    0.00205     0.73400
      H   23    0.26465      0.00000     0.73310    0.00226     0.73535
      H   24    0.24186      0.00000     0.75656    0.00158     0.75814
      H   25    0.24521      0.00000     0.75317    0.00162     0.75479
      H   26    0.42899      0.00000     0.56805    0.00296     0.57101
      H   27    0.43031      0.00000     0.56730    0.00239     0.56969
      H   28    0.25339      0.00000     0.74432    0.00229     0.74661
      H   29    0.25397      0.00000     0.74422    0.00180     0.74603
 =======================================================================
   * Total *    0.00000     49.98422    87.69973    0.31605   138.00000

 Normal termination of Gaussian 16 at Wed Jul 17 23:12:52 2024.
