 Gaussian 16, Revision A.03,

 -------------------------------------------------------
 # opt=CalcFc B3LYP/6-31G** SCRF=(Solvent=water) scf=xqc
 -------------------------------------------------------

 ----------------------------------
 IBOFVQJTBBUKMU-UHFFFAOYSA-N_conf_0
 ----------------------------------
 Symbolic Z-matrix:
 Charge =  0 Multiplicity = 1

 SCF Done:  E(RB3LYP) =  -1532.54785301     A.U. after   13 cycles
 SCF Done:  E(RB3LYP) =  -1532.55278626     A.U. after   11 cycles
 SCF Done:  E(RB3LYP) =  -1532.55306975     A.U. after   10 cycles
 SCF Done:  E(RB3LYP) =  -1532.55308698     A.U. after   10 cycles
 SCF Done:  E(RB3LYP) =  -1532.55308946     A.U. after    9 cycles
 SCF Done:  E(RB3LYP) =  -1532.55308925     A.U. after    8 cycles
 SCF Done:  E(RB3LYP) =  -1532.55308936     A.U. after    7 cycles
 Optimization completed.
    -- Stationary point found.
 Normal termination of Gaussian 16 at Wed Jul 17 22:10:40 2024.

 ----------------------------------------------------------------------
 # freq B3LYP/6-31G** SCRF=(Solvent=water) volume NMR pop=NPA density=c
 urrent Geom=AllCheck Guess=Read
 ----------------------------------------------------------------------

 Structure from the checkpoint file:  "IBOFVQJTBBUKMU-UHFFFAOYSA-N_conf_0_1.chk"
 ----------------------------------
 IBOFVQJTBBUKMU-UHFFFAOYSA-N_conf_0
 ----------------------------------
 Charge =  0 Multiplicity = 1

 SCF Done:  E(RB3LYP) =  -1532.55308936     A.U. after    1 cycles

      1  N    Isotropic =   201.4278   Anisotropy =    52.5905

      2  C    Isotropic =    55.1528   Anisotropy =   149.5303

      3  C    Isotropic =    79.9474   Anisotropy =   129.0598

      4  C    Isotropic =    67.7018   Anisotropy =   161.9489

      5  C    Isotropic =    63.6886   Anisotropy =   161.7165

      6  C    Isotropic =   149.8525   Anisotropy =    22.0868

      7  C    Isotropic =    63.5511   Anisotropy =   160.9713

      8  C    Isotropic =    67.6207   Anisotropy =   145.0758

      9  C    Isotropic =    81.7032   Anisotropy =   126.5781

     10  C    Isotropic =    55.0022   Anisotropy =   149.6158

     11  N    Isotropic =   201.5653   Anisotropy =    52.9292

     12  C    Isotropic =    68.5108   Anisotropy =    68.7356

     13  Cl   Isotropic =   787.1128   Anisotropy =   347.1409

     14  C    Isotropic =    66.6837   Anisotropy =   135.6020

     15  C    Isotropic =    66.7575   Anisotropy =   119.3987

     16  C    Isotropic =    70.2573   Anisotropy =    68.0224

     17  Cl   Isotropic =   789.5316   Anisotropy =   344.2227

     18  H    Isotropic =    28.1406   Anisotropy =     9.9582

     19  H    Isotropic =    28.5090   Anisotropy =    13.6065

     20  H    Isotropic =    25.0596   Anisotropy =     6.1057

     21  H    Isotropic =    24.8402   Anisotropy =     8.7872

     22  H    Isotropic =    28.2497   Anisotropy =     6.5599

     23  H    Isotropic =    28.2858   Anisotropy =     5.9499

     24  H    Isotropic =    24.6590   Anisotropy =     6.0869

     25  H    Isotropic =    25.0765   Anisotropy =     5.4167

     26  H    Isotropic =    28.1852   Anisotropy =     9.9285

     27  H    Isotropic =    28.4871   Anisotropy =    13.5876

     28  H    Isotropic =    24.8291   Anisotropy =    12.2954

     29  H    Isotropic =    24.6359   Anisotropy =     9.0404

  Exact polarizability: 287.340  36.777 222.232 -11.437 -10.645 169.782
 Approx polarizability: 315.297  45.721 269.648 -15.804 -12.291 213.029

                      1                      2                      3
                      A                      A                      A
 Frequencies --     10.9426                13.9668                39.9461
 Red. masses --      7.1775                 7.7233                 5.7020
 Frc consts  --      0.0005                 0.0009                 0.0054
 IR Inten    --      0.4820                 0.4919                 1.5947

                      4                      5                      6
                      A                      A                      A
 Frequencies --    118.1736               138.9671               170.1794
 Red. masses --      5.0479                 4.7312                 7.0080
 Frc consts  --      0.0415                 0.0538                 0.1196
 IR Inten    --      1.1077                 4.2035                 0.5380

                      7                      8                      9
                      A                      A                      A
 Frequencies --    172.9493               197.5072               242.4086
 Red. masses --      5.3757                 6.7045                 5.2972
 Frc consts  --      0.0947                 0.1541                 0.1834
 IR Inten    --      0.3067                 2.8415                 2.0900

                     10                     11                     12
                      A                      A                      A
 Frequencies --    273.1091               298.4088               322.1150
 Red. masses --      5.6120                 3.2815                 1.4143
 Frc consts  --      0.2466                 0.1722                 0.0865
 IR Inten    --      1.8636                10.2256                28.5549

                     13                     14                     15
                      A                      A                      A
 Frequencies --    326.7564               340.3375               346.7666
 Red. masses --      1.2368                 2.1610                 2.4848
 Frc consts  --      0.0778                 0.1475                 0.1760
 IR Inten    --     17.0150                25.5207                13.4400

                     16                     17                     18
                      A                      A                      A
 Frequencies --    392.8751               395.0568               441.8614
 Red. masses --      7.1820                 5.0757                 3.2581
 Frc consts  --      0.6531                 0.4667                 0.3748
 IR Inten    --      1.8369                 2.2413                13.5358

                     19                     20                     21
                      A                      A                      A
 Frequencies --    447.0255               482.4493               486.9693
 Red. masses --      3.3281                 3.9839                 3.7293
 Frc consts  --      0.3918                 0.5463                 0.5211
 IR Inten    --     12.2898                 2.2335                 3.0609

                     22                     23                     24
                      A                      A                      A
 Frequencies --    510.5114               520.6719               562.0331
 Red. masses --      5.0517                 3.6915                 2.1009
 Frc consts  --      0.7757                 0.5896                 0.3910
 IR Inten    --     23.9237                40.8238                97.6715

                     25                     26                     27
                      A                      A                      A
 Frequencies --    581.0422               596.4467               642.6863
 Red. masses --      1.6674                 1.8614                 3.1361
 Frc consts  --      0.3317                 0.3902                 0.7632
 IR Inten    --    686.8612               227.9996                51.1398

                     28                     29                     30
                      A                      A                      A
 Frequencies --    692.1347               696.8279               714.7327
 Red. masses --      6.2087                 6.7127                 4.5039
 Frc consts  --      1.7524                 1.9204                 1.3556
 IR Inten    --     19.7068                25.7097                 7.1443

                     31                     32                     33
                      A                      A                      A
 Frequencies --    723.3351               789.2434               804.9419
 Red. masses --      5.0542                 3.0995                 3.5444
 Frc consts  --      1.5580                 1.1375                 1.3531
 IR Inten    --     53.2706                44.4655                 3.2030

                     34                     35                     36
                      A                      A                      A
 Frequencies --    828.5491               836.7162               882.6317
 Red. masses --      1.5127                 1.6160                 2.3448
 Frc consts  --      0.6118                 0.6666                 1.0763
 IR Inten    --     38.4137                27.8026                21.0317

                     37                     38                     39
                      A                      A                      A
 Frequencies --    887.8916               903.2815               911.3386
 Red. masses --      1.5339                 3.6771                 2.1212
 Frc consts  --      0.7125                 1.7677                 1.0380
 IR Inten    --     11.2996                17.5428                31.2648

                     40                     41                     42
                      A                      A                      A
 Frequencies --    942.7106               956.4547               958.8081
 Red. masses --      1.7583                 1.3608                 1.3970
 Frc consts  --      0.9207                 0.7334                 0.7567
 IR Inten    --     32.7547                 2.4291                 6.6921

                     43                     44                     45
                      A                      A                      A
 Frequencies --   1055.9423              1056.4588              1097.8253
 Red. masses --      2.8921                 2.8079                 1.5629
 Frc consts  --      1.8999                 1.8465                 1.1098
 IR Inten    --     52.0203                12.1159                12.6683

                     46                     47                     48
                      A                      A                      A
 Frequencies --   1102.6428              1182.4077              1184.5644
 Red. masses --      1.5081                 1.2340                 1.2054
 Frc consts  --      1.0803                 1.0165                 0.9965
 IR Inten    --     29.0316                31.3723                24.8684

                     49                     50                     51
                      A                      A                      A
 Frequencies --   1201.6629              1216.8317              1225.8897
 Red. masses --      1.1580                 2.4102                 2.0613
 Frc consts  --      0.9852                 2.1026                 1.8252
 IR Inten    --      1.9512                30.6996                 9.2327

                     52                     53                     54
                      A                      A                      A
 Frequencies --   1290.4659              1303.2812              1324.7791
 Red. masses --      1.9281                 2.0317                 2.5521
 Frc consts  --      1.8918                 2.0333                 2.6389
 IR Inten    --     19.4929                24.8626                73.6446

                     55                     56                     57
                      A                      A                      A
 Frequencies --   1341.2879              1348.7507              1362.8511
 Red. masses --      1.7777                 1.7113                 3.5527
 Frc consts  --      1.8843                 1.8341                 3.8879
 IR Inten    --    105.0095                20.6210                23.4393

                     58                     59                     60
                      A                      A                      A
 Frequencies --   1366.5503              1453.3423              1456.6958
 Red. masses --      3.7638                 3.3123                 2.8886
 Frc consts  --      4.1413                 4.1220                 3.6114
 IR Inten    --     51.4277                15.4516                11.2801

                     61                     62                     63
                      A                      A                      A
 Frequencies --   1487.3145              1542.0509              1546.2348
 Red. masses --      1.1249                 2.9431                 2.9149
 Frc consts  --      1.4662                 4.1234                 4.1060
 IR Inten    --     10.8653               297.6548               103.4059

                     64                     65                     66
                      A                      A                      A
 Frequencies --   1607.2045              1611.5138              1644.6119
 Red. masses --      6.3293                 6.0020                 1.4610
 Frc consts  --      9.6327                 9.1837                 2.3283
 IR Inten    --     12.6302                 6.2187                74.5884

                     67                     68                     69
                      A                      A                      A
 Frequencies --   1646.0839              1667.5380              1670.0212
 Red. masses --      1.3709                 2.9616                 3.4118
 Frc consts  --      2.1885                 4.8520                 5.6062
 IR Inten    --      9.8571               263.8731                63.8148

                     70                     71                     72
                      A                      A                      A
 Frequencies --   3037.0198              3076.7113              3178.8261
 Red. masses --      1.0600                 1.1037                 1.0871
 Frc consts  --      5.7603                 6.1558                 6.4724
 IR Inten    --     60.1350                26.4989                21.0314

                     73                     74                     75
                      A                      A                      A
 Frequencies --   3179.2305              3194.0317              3194.6026
 Red. masses --      1.0871                 1.0947                 1.0948
 Frc consts  --      6.4736                 6.5800                 6.5827
 IR Inten    --     12.2279                19.7912                35.8818

                     76                     77                     78
                      A                      A                      A
 Frequencies --   3201.4862              3202.2768              3565.6687
 Red. masses --      1.0915                 1.0914                 1.0483
 Frc consts  --      6.5912                 6.5942                 7.8527
 IR Inten    --      3.0977                 2.6789                91.0213

                     79                     80                     81
                      A                      A                      A
 Frequencies --   3565.7341              3670.6230              3670.7101
 Red. masses --      1.0483                 1.0987                 1.0988
 Frc consts  --      7.8530                 8.7222                 8.7227
 IR Inten    --     11.4979                39.3715                39.3094

 - Thermochemistry -
 -------------------
 Temperature   298.150 Kelvin.  Pressure   1.00000 Atm.
 Atom     1 has atomic number  7 and mass  14.00307

 Molecular mass:   266.03775 amu.
 Principal axes and moments of inertia in atomic units:
                           1         2         3
     Eigenvalues --  2506.18789********************
           X            0.99996   0.00410   0.00772
           Y           -0.00408   0.99999  -0.00189
           Z           -0.00772   0.00186   0.99997
 This molecule is an asymmetric top.
 Rotational symmetry number  1.
 Warning -- assumption of classical behavior for rotation
           may cause significant error
 Rotational temperatures (Kelvin)      0.03456     0.00788     0.00728
 Rotational constants (GHZ):           0.72011     0.16411     0.15167
 Zero-point vibrational energy     588164.9 (Joules/Mol)
                                  140.57477 (Kcal/Mol)
 Warning -- explicit consideration of  26 degrees of freedom as
           vibrations may cause significant error
 Vibrational temperatures:     15.74    20.10    57.47   170.03   199.94
          (Kelvin)            244.85   248.84   284.17   348.77   392.94
                              429.34   463.45   470.13   489.67   498.92
                              565.26   568.40   635.74   643.17   694.14
                              700.64   734.51   749.13   808.64   835.99
                              858.15   924.68   995.83  1002.58  1028.34
                             1040.72  1135.55  1158.13  1192.10  1203.85
                             1269.91  1277.48  1299.62  1311.21  1356.35
                             1376.13  1379.51  1519.27  1520.01  1579.53
                             1586.46  1701.22  1704.32  1728.92  1750.75
                             1763.78  1856.69  1875.13  1906.06  1929.81
                             1940.55  1960.84  1966.16  2091.04  2095.86
                             2139.91  2218.67  2224.69  2312.41  2318.61
                             2366.23  2368.35  2399.22  2402.79  4369.59
                             4426.70  4573.62  4574.20  4595.50  4596.32
                             4606.22  4607.36  5130.20  5130.30  5281.21
                             5281.33

 Zero-point correction=                           0.224020 (Hartree/Particle)
 Thermal correction to Energy=                    0.239684
 Thermal correction to Enthalpy=                  0.240628
 Thermal correction to Gibbs Free Energy=         0.178090
 Sum of electronic and zero-point Energies=          -1532.329069
 Sum of electronic and thermal Energies=             -1532.313405
 Sum of electronic and thermal Enthalpies=           -1532.312461
 Sum of electronic and thermal Free Energies=        -1532.375000

                     E (Thermal)             CV                S
                      KCal/Mol        Cal/Mol-Kelvin    Cal/Mol-Kelvin
 Total                  150.404             60.740            131.623
 Electronic               0.000              0.000              0.000
 Translational            0.889              2.981             42.635
 Rotational               0.889              2.981             34.149
 Vibrational            148.627             54.779             54.839
 Vibration     1          0.593              1.987              7.832
 Vibration     2          0.593              1.986              7.347
 Vibration     3          0.594              1.981              5.262
 Vibration     4          0.608              1.934              3.130
 Vibration     5          0.615              1.914              2.818
 Vibration     6          0.625              1.879              2.434
 Vibration     7          0.626              1.876              2.403
 Vibration     8          0.637              1.843              2.156
 Vibration     9          0.659              1.775              1.785
 Vibration    10          0.676              1.723              1.576
 Vibration    11          0.691              1.677              1.426
 Vibration    12          0.707              1.631              1.299
 Vibration    13          0.710              1.622              1.276
 Vibration    14          0.720              1.595              1.211
 Vibration    15          0.725              1.582              1.181
 Vibration    16          0.760              1.485              0.989
 Vibration    17          0.762              1.481              0.981
 Vibration    18          0.802              1.379              0.821
 Vibration    19          0.806              1.367              0.805
 Vibration    20          0.839              1.289              0.703
 Vibration    21          0.843              1.279              0.692
 Vibration    22          0.866              1.227              0.632
 Vibration    23          0.876              1.204              0.608
 Vibration    24          0.918              1.113              0.520
 Vibration    25          0.938              1.072              0.483
 Vibration    26          0.954              1.039              0.456

 Optimization completed.
    -- Stationary point found.
 Normal termination of Gaussian 16 at Wed Jul 17 22:28:11 2024.
 Gaussian 16:  ES64L-G16RevA.03 25-Dec-2016

 ----------------------------------------------------------------------
 # TD(NStates=10, Root=1) B3LYP/6-31G** SCRF=(Solvent=water) volume pop
 =NPA density=current Geom=AllCheck Guess=Read
 ----------------------------------------------------------------------

 Structure from the checkpoint file:  "IBOFVQJTBBUKMU-UHFFFAOYSA-N_conf_0_2.chk"
 ----------------------------------
 IBOFVQJTBBUKMU-UHFFFAOYSA-N_conf_0
 ----------------------------------
 Charge =  0 Multiplicity = 1

                         Standard orientation:
 ---------------------------------------------------------------------
 Center     Atomic      Atomic             Coordinates (Angstroms)
 Number     Number       Type             X           Y           Z
 ---------------------------------------------------------------------
      1          7           0        4.491580    0.050700    1.851713
      2          6           0        3.432928   -0.314466    1.031572
      3          6           0        2.448308   -1.223194    1.472510
      4          6           0        1.350417   -1.543307    0.685752
      5          6           0        1.172545   -0.981283   -0.588397
      6          6           0       -0.023840   -1.344709   -1.452232
      7          6           0       -1.369619   -0.977186   -0.847632
      8          6           0       -2.342531   -1.947148   -0.577797
      9          6           0       -3.579602   -1.607838   -0.037233
     10          6           0       -3.908074   -0.273972    0.266582
     11          7           0       -5.115437    0.054200    0.868115
     12          6           0       -2.918115    0.689902   -0.011179
     13         17           0       -3.262877    2.393030    0.338131
     14          6           0       -1.682450    0.355389   -0.552048
     15          6           0        2.140776   -0.081658   -1.040252
     16          6           0        3.239816    0.239864   -0.245434
     17         17           0        4.437337    1.385742   -0.872431
     18          1           0        5.316715    0.384330    1.370572
     19          1           0        4.720052   -0.623957    2.569951
     20          1           0        2.563682   -1.675311    2.453924
     21          1           0        0.615402   -2.246375    1.068056
     22          1           0       -0.018174   -2.423216   -1.649890
     23          1           0        0.087366   -0.855985   -2.427494
     24          1           0       -2.134236   -2.990326   -0.799841
     25          1           0       -4.315197   -2.382496    0.161404
     26          1           0       -5.433114    1.002061    0.712345
     27          1           0       -5.855074   -0.620469    0.723180
     28          1           0       -0.959110    1.142084   -0.741901
     29          1           0        2.049524    0.373877   -2.021256
 ---------------------------------------------------------------------

 SCF Done:  E(RB3LYP) =  -1532.55308936     A.U. after    1 cycles

 Excitation energies and oscillator strengths:

 Excited State   1:      Singlet-A      4.5381 eV  273.21 nm  f=0.1686  <S**2>=0.000
      67 -> 72         0.12599
      68 -> 71        -0.19202
      69 -> 70         0.65584
 This state for optimization and/or second-order correction.
 Total Energy, E(TD-HF/TD-DFT) =  -1532.38631796
 Copying the excited state density for this state as the 1-particle RhoCI density.

 Excited State   2:      Singlet-A      4.5828 eV  270.54 nm  f=0.0625  <S**2>=0.000
      66 -> 72         0.13033
      67 -> 73        -0.10204
      68 -> 70        -0.23664
      69 -> 71         0.63704

 Excited State   3:      Singlet-A      4.8414 eV  256.09 nm  f=0.0055  <S**2>=0.000
      68 -> 70         0.61100
      68 -> 71        -0.18480
      69 -> 71         0.24429

 Excited State   4:      Singlet-A      4.8783 eV  254.15 nm  f=0.0237  <S**2>=0.000
      68 -> 70         0.19041
      68 -> 71         0.61326
      69 -> 70         0.18917
      69 -> 71         0.10868
      69 -> 72         0.16016

 Excited State   5:      Singlet-A      5.0109 eV  247.43 nm  f=0.4691  <S**2>=0.000
      68 -> 71        -0.16834
      69 -> 72         0.65702
      69 -> 74        -0.10326

 Excited State   6:      Singlet-A      5.1933 eV  238.74 nm  f=0.0033  <S**2>=0.000
      68 -> 72         0.42554
      68 -> 74        -0.20781
      69 -> 73        -0.40818
      69 -> 75         0.29161

 Excited State   7:      Singlet-A      5.3177 eV  233.15 nm  f=0.0524  <S**2>=0.000
      68 -> 73         0.16886
      68 -> 74         0.17667
      68 -> 75        -0.31588
      69 -> 72         0.15482
      69 -> 74         0.55408

 Excited State   8:      Singlet-A      5.3842 eV  230.27 nm  f=0.0283  <S**2>=0.000
      68 -> 72        -0.40361
      68 -> 74        -0.28477
      68 -> 75        -0.11226
      69 -> 75         0.46628

 Excited State   9:      Singlet-A      5.5081 eV  225.09 nm  f=0.1334  <S**2>=0.000
      66 -> 70         0.15894
      67 -> 71         0.17263
      68 -> 72         0.34553
      68 -> 74        -0.11445
      69 -> 73         0.52504
      69 -> 75         0.13480

 Excited State  10:      Singlet-A      5.5939 eV  221.64 nm  f=0.1696  <S**2>=0.000
      66 -> 71        -0.10620
      68 -> 73         0.65130
      69 -> 74        -0.16924

 The electronic state is 1-A.
 Alpha  occ. eigenvalues -- -101.55447-101.55439 -14.34439 -14.34425 -10.24704
 Alpha  occ. eigenvalues --  -10.24586 -10.24199 -10.24194 -10.19880 -10.19839
 Alpha  occ. eigenvalues --  -10.19628 -10.19620 -10.19434 -10.19272 -10.19244
 Alpha  occ. eigenvalues --  -10.19198 -10.19144  -9.47045  -9.47034  -7.23413
 Alpha  occ. eigenvalues --   -7.23402  -7.22485  -7.22474  -7.22469  -7.22459
 Alpha  occ. eigenvalues --   -0.93114  -0.93090  -0.87156  -0.86895  -0.84433
 Alpha  occ. eigenvalues --   -0.83006  -0.77346  -0.74054  -0.73539  -0.72275
 Alpha  occ. eigenvalues --   -0.67512  -0.61873  -0.61782  -0.59521  -0.57248
 Alpha  occ. eigenvalues --   -0.52441  -0.52254  -0.52046  -0.51509  -0.47167
 Alpha  occ. eigenvalues --   -0.46266  -0.45315  -0.44189  -0.43878  -0.43144
 Alpha  occ. eigenvalues --   -0.42550  -0.42388  -0.41030  -0.40394  -0.38858
 Alpha  occ. eigenvalues --   -0.37531  -0.36413  -0.35185  -0.34455  -0.33844
 Alpha  occ. eigenvalues --   -0.33835  -0.32094  -0.31955  -0.31338  -0.30464
 Alpha  occ. eigenvalues --   -0.24990  -0.24915  -0.21263  -0.20321
 Alpha virt. eigenvalues --   -0.01198  -0.01051   0.00098   0.01290   0.02721
 Alpha virt. eigenvalues --    0.02850   0.09509   0.09601   0.10810   0.12452
 Alpha virt. eigenvalues --    0.12620   0.14375   0.15053   0.15334   0.16172

 Mulliken charges:
               1
     1  N   -0.629212
     2  C    0.294121
     3  C   -0.141145
     4  C   -0.147508
     5  C    0.138381
     6  C   -0.311657
     7  C    0.142858
     8  C   -0.185023
     9  C   -0.135670
    10  C    0.292974
    11  N   -0.624583
    12  C   -0.160226
    13  Cl  -0.062154
    14  C   -0.147098
    15  C   -0.170601
    16  C   -0.147224
    17  Cl  -0.048257
    18  H    0.300714
    19  H    0.301797
    20  H    0.098384
    21  H    0.093076
    22  H    0.128238
    23  H    0.127836
    24  H    0.086856
    25  H    0.096484
    26  H    0.301202
    27  H    0.302887
    28  H    0.101160
    29  H    0.103392
 Sum of Mulliken charges =  -0.00000

 Dipole moment (field-independent basis, Debye):
    X=             -0.8512    Y=             -3.4429    Z=              1.4928  Tot=              3.8479
 Quadrupole moment (field-independent basis, Debye-Ang):
   XX=            -67.9285   YY=           -112.9725   ZZ=           -108.9723
   XY=             -0.5151   XZ=             11.3865   YZ=             -3.1580

 Summary of Natural Population Analysis:

                                       Natural Population
                Natural  -----------------------------------------------
    Atom  No    Charge         Core      Valence    Rydberg      Total
 -----------------------------------------------------------------------
      N    1   -0.77093      1.99948     5.76032    0.01113     7.77093
      C    2    0.16392      1.99882     3.81905    0.01820     5.83608
      C    3   -0.31703      1.99905     4.30205    0.01593     6.31703
      C    4   -0.25340      1.99904     4.23911    0.01525     6.25340
      C    5    0.00270      1.99900     3.98138    0.01692     5.99730
      C    6   -0.49339      1.99921     4.47953    0.01466     6.49339
      C    7    0.01332      1.99900     3.97105    0.01663     5.98668
      C    8   -0.29443      1.99904     4.27896    0.01642     6.29443
      C    9   -0.30219      1.99905     4.28703    0.01611     6.30219
      C   10    0.16333      1.99883     3.81941    0.01843     5.83667
      N   11   -0.76198      1.99948     5.75146    0.01105     7.76198
      C   12   -0.11340      1.99851     4.09344    0.02145     6.11340
     Cl   13   -0.04427      9.99970     7.02447    0.02009    17.04427
      C   14   -0.29776      1.99889     4.28050    0.01837     6.29776
      C   15   -0.31311      1.99890     4.29592    0.01829     6.31311
      C   16   -0.08524      1.99851     4.06553    0.02121     6.08524
     Cl   17   -0.03268      9.99970     7.01312    0.01986    17.03268
      H   18    0.42898      0.00000     0.56819    0.00283     0.57102
      H   19    0.43003      0.00000     0.56750    0.00247     0.56997
      H   20    0.24687      0.00000     0.75157    0.00155     0.75313
      H   21    0.24583      0.00000     0.75202    0.00215     0.75417
      H   22    0.26614      0.00000     0.73180    0.00206     0.73386
      H   23    0.26470      0.00000     0.73304    0.00226     0.73530
      H   24    0.24192      0.00000     0.75650    0.00158     0.75808
      H   25    0.24532      0.00000     0.75306    0.00162     0.75468
      H   26    0.42899      0.00000     0.56805    0.00296     0.57101
      H   27    0.43032      0.00000     0.56729    0.00239     0.56968
      H   28    0.25363      0.00000     0.74407    0.00229     0.74637
      H   29    0.25379      0.00000     0.74439    0.00181     0.74621
 =======================================================================
   * Total *    0.00000     49.98422    87.69983    0.31595   138.00000

 Normal termination of Gaussian 16 at Wed Jul 17 22:46:16 2024.
