 Gaussian 16, Revision A.03,

 -------------------------------------------------------
 # opt=CalcFc B3LYP/6-31G** SCRF=(Solvent=water) scf=xqc
 -------------------------------------------------------

 ----------------------------------
 IBOFVQJTBBUKMU-UHFFFAOYSA-N_conf_1
 ----------------------------------
 Symbolic Z-matrix:
 Charge =  0 Multiplicity = 1

 SCF Done:  E(RB3LYP) =  -1532.54783443     A.U. after   13 cycles
 SCF Done:  E(RB3LYP) =  -1532.55266632     A.U. after   10 cycles
 SCF Done:  E(RB3LYP) =  -1532.55303222     A.U. after   13 cycles
 SCF Done:  E(RB3LYP) =  -1532.55286543     A.U. after   13 cycles
 SCF Done:  E(RB3LYP) =  -1532.55302790     A.U. after   13 cycles
 SCF Done:  E(RB3LYP) =  -1532.55303126     A.U. after   10 cycles
 SCF Done:  E(RB3LYP) =  -1532.55304331     A.U. after   10 cycles
 SCF Done:  E(RB3LYP) =  -1532.55304325     A.U. after    8 cycles
 SCF Done:  E(RB3LYP) =  -1532.55304328     A.U. after    6 cycles
 SCF Done:  E(RB3LYP) =  -1532.55304337     A.U. after    6 cycles
 SCF Done:  E(RB3LYP) =  -1532.55304293     A.U. after    8 cycles
 Optimization completed.
    -- Stationary point found.
 Normal termination of Gaussian 16 at Wed Jul 17 22:37:04 2024.

 ----------------------------------------------------------------------
 # freq B3LYP/6-31G** SCRF=(Solvent=water) volume NMR pop=NPA density=c
 urrent Geom=AllCheck Guess=Read
 ----------------------------------------------------------------------

 Structure from the checkpoint file:  "IBOFVQJTBBUKMU-UHFFFAOYSA-N_conf_1_1.chk"
 ----------------------------------
 IBOFVQJTBBUKMU-UHFFFAOYSA-N_conf_1
 ----------------------------------
 Charge =  0 Multiplicity = 1

 SCF Done:  E(RB3LYP) =  -1532.55304293     A.U. after    1 cycles

      1  N    Isotropic =   201.5106   Anisotropy =    52.9764

      2  C    Isotropic =    54.9690   Anisotropy =   149.7845

      3  C    Isotropic =    81.6675   Anisotropy =   126.6369

      4  C    Isotropic =    67.5911   Anisotropy =   145.5144

      5  C    Isotropic =    63.4616   Anisotropy =   161.7659

      6  C    Isotropic =   149.8883   Anisotropy =    21.6661

      7  C    Isotropic =    63.4615   Anisotropy =   161.7657

      8  C    Isotropic =    67.5912   Anisotropy =   145.5143

      9  C    Isotropic =    81.6675   Anisotropy =   126.6369

     10  C    Isotropic =    54.9690   Anisotropy =   149.7844

     11  N    Isotropic =   201.5106   Anisotropy =    52.9764

     12  C    Isotropic =    68.4912   Anisotropy =    68.9375

     13  Cl   Isotropic =   786.9065   Anisotropy =   347.3031

     14  C    Isotropic =    66.6909   Anisotropy =   135.6836

     15  C    Isotropic =    66.6909   Anisotropy =   135.6832

     16  C    Isotropic =    68.4912   Anisotropy =    68.9376

     17  Cl   Isotropic =   786.9064   Anisotropy =   347.3031

     18  H    Isotropic =    28.4833   Anisotropy =    13.4320

     19  H    Isotropic =    28.1949   Anisotropy =     9.7188

     20  H    Isotropic =    25.0662   Anisotropy =     5.3975

     21  H    Isotropic =    24.6525   Anisotropy =     5.9432

     22  H    Isotropic =    28.2413   Anisotropy =     6.3950

     23  H    Isotropic =    28.2413   Anisotropy =     6.3950

     24  H    Isotropic =    24.6526   Anisotropy =     5.9432

     25  H    Isotropic =    25.0663   Anisotropy =     5.3975

     26  H    Isotropic =    28.4833   Anisotropy =    13.4320

     27  H    Isotropic =    28.1949   Anisotropy =     9.7188

     28  H    Isotropic =    24.8748   Anisotropy =    12.0384

     29  H    Isotropic =    24.8747   Anisotropy =    12.0382

  Exact polarizability: 259.366 -32.727 234.644   0.001  -0.001 183.521
 Approx polarizability: 289.425 -38.984 286.084   0.001  -0.001 222.141

                      1                      2                      3
                      A                      A                      A
 Frequencies --     12.3121                15.6100                35.5713
 Red. masses --      9.0315                 5.7687                 6.7377
 Frc consts  --      0.0008                 0.0008                 0.0050
 IR Inten    --      1.4792                 1.0976                 0.3741

                      4                      5                      6
                      A                      A                      A
 Frequencies --    119.3482               132.9097               169.4158
 Red. masses --      5.1303                 5.3809                 5.4346
 Frc consts  --      0.0431                 0.0560                 0.0919
 IR Inten    --      5.7452                 0.0472                 0.6835

                      7                      8                      9
                      A                      A                      A
 Frequencies --    172.8466               225.7838               236.7860
 Red. masses --      6.1954                 6.8514                 4.8708
 Frc consts  --      0.1091                 0.2058                 0.1609
 IR Inten    --      0.0215                 1.6360                 3.4729

                     10                     11                     12
                      A                      A                      A
 Frequencies --    267.6046               298.4302               332.0171
 Red. masses --      5.4695                 3.5130                 1.2276
 Frc consts  --      0.2308                 0.1843                 0.0797
 IR Inten    --      0.2611                 4.7176                56.2222

                     13                     14                     15
                      A                      A                      A
 Frequencies --    332.4678               343.3113               350.0672
 Red. masses --      1.4804                 2.0652                 2.3636
 Frc consts  --      0.0964                 0.1434                 0.1707
 IR Inten    --      8.4459                 3.4343                21.6694

                     16                     17                     18
                      A                      A                      A
 Frequencies --    393.9144               394.0490               441.6126
 Red. masses --      8.0541                 4.9543                 3.2984
 Frc consts  --      0.7363                 0.4532                 0.3790
 IR Inten    --      5.0747                 1.3495                 3.0911

                     19                     20                     21
                      A                      A                      A
 Frequencies --    442.1719               481.9055               489.9615
 Red. masses --      3.2458                 3.9871                 3.6687
 Frc consts  --      0.3739                 0.5455                 0.5189
 IR Inten    --     31.1348                 0.0076                 4.2179

                     22                     23                     24
                      A                      A                      A
 Frequencies --    511.0237               518.9827               563.4849
 Red. masses --      5.0585                 4.1807                 2.2014
 Frc consts  --      0.7783                 0.6635                 0.4118
 IR Inten    --     26.4270                 1.5799               477.0450

                     25                     26                     27
                      A                      A                      A
 Frequencies --    593.9380               602.0829               628.6283
 Red. masses --      1.4315                 1.8003                 4.4912
 Frc consts  --      0.2975                 0.3845                 1.0457
 IR Inten    --      0.0356               673.4444                17.6725

                     28                     29                     30
                      A                      A                      A
 Frequencies --    689.1782               700.0068               715.6697
 Red. masses --      5.9866                 6.5277                 4.5222
 Frc consts  --      1.6753                 1.8846                 1.3647
 IR Inten    --     21.3213                39.7691                49.0197

                     31                     32                     33
                      A                      A                      A
 Frequencies --    727.2722               788.7512               803.5804
 Red. masses --      4.5437                 2.7449                 3.6025
 Frc consts  --      1.4160                 1.0061                 1.3706
 IR Inten    --     22.8390                 1.0185                 3.0648

                     34                     35                     36
                      A                      A                      A
 Frequencies --    827.7103               840.7453               887.6956
 Red. masses --      1.4885                 1.6902                 1.3968
 Frc consts  --      0.6008                 0.7039                 0.6485
 IR Inten    --     54.2838                26.3390                22.6913

                     37                     38                     39
                      A                      A                      A
 Frequencies --    887.7119               899.7179               913.0808
 Red. masses --      2.6028                 4.0798                 2.1490
 Frc consts  --      1.2085                 1.9458                 1.0556
 IR Inten    --      0.1507                27.2958                31.6889

                     40                     41                     42
                      A                      A                      A
 Frequencies --    942.4882               955.6115               959.2005
 Red. masses --      1.6795                 1.3413                 1.4989
 Frc consts  --      0.8790                 0.7217                 0.8125
 IR Inten    --     26.1352                 0.6914                13.0840

                     43                     44                     45
                      A                      A                      A
 Frequencies --   1056.4208              1056.7739              1097.9156
 Red. masses --      2.9061                 2.8167                 1.5607
 Frc consts  --      1.9109                 1.8533                 1.1084
 IR Inten    --     25.6113                46.6338                10.4719

                     46                     47                     48
                      A                      A                      A
 Frequencies --   1103.5002              1182.2216              1184.4524
 Red. masses --      1.4935                 1.3017                 1.2185
 Frc consts  --      1.0715                 1.0719                 1.0072
 IR Inten    --     25.3668                 5.1982                51.6249

                     49                     50                     51
                      A                      A                      A
 Frequencies --   1201.6739              1216.1320              1224.5842
 Red. masses --      1.1611                 2.2041                 2.0062
 Frc consts  --      0.9878                 1.9206                 1.7726
 IR Inten    --      3.4494                24.1744                29.0839

                     52                     53                     54
                      A                      A                      A
 Frequencies --   1290.1993              1302.6198              1324.1171
 Red. masses --      1.6118                 2.1435                 3.3752
 Frc consts  --      1.5808                 2.1429                 3.4866
 IR Inten    --     15.1610                 7.0757               152.2403

                     55                     56                     57
                      A                      A                      A
 Frequencies --   1342.6208              1352.1370              1361.8325
 Red. masses --      1.8044                 1.8327                 4.2597
 Frc consts  --      1.9164                 1.9742                 4.6546
 IR Inten    --     55.3240                39.7503                12.9057

                     58                     59                     60
                      A                      A                      A
 Frequencies --   1364.5928              1453.6351              1458.3697
 Red. masses --      2.6187                 3.3439                 2.8154
 Frc consts  --      2.8731                 4.1631                 3.5280
 IR Inten    --     27.0525                22.3919                 2.5609

                     61                     62                     63
                      A                      A                      A
 Frequencies --   1488.6790              1542.2364              1545.3644
 Red. masses --      1.1294                 2.9620                 2.9550
 Frc consts  --      1.4747                 4.1509                 4.1579
 IR Inten    --     10.4939               296.1708               113.3811

                     64                     65                     66
                      A                      A                      A
 Frequencies --   1606.9340              1611.5772              1644.9604
 Red. masses --      6.1574                 5.9075                 1.4931
 Frc consts  --      9.3679                 9.0398                 2.3804
 IR Inten    --      8.5495                 1.5794                23.9118

                     67                     68                     69
                      A                      A                      A
 Frequencies --   1646.3711              1667.2003              1669.3935
 Red. masses --      1.4041                 2.8326                 3.2495
 Frc consts  --      2.2424                 4.6389                 5.3356
 IR Inten    --     59.9180               223.8873                90.4338

                     70                     71                     72
                      A                      A                      A
 Frequencies --   3037.1650              3076.4673              3179.0757
 Red. masses --      1.0600                 1.1036                 1.0871
 Frc consts  --      5.7609                 6.1542                 6.4732
 IR Inten    --     61.9592                25.8326                12.6104

                     73                     74                     75
                      A                      A                      A
 Frequencies --   3179.0910              3194.2579              3194.3514
 Red. masses --      1.0871                 1.0947                 1.0946
 Frc consts  --      6.4734                 6.5807                 6.5810
 IR Inten    --     22.6673                49.0348                 9.2380

                     76                     77                     78
                      A                      A                      A
 Frequencies --   3202.2108              3202.2817              3565.5374
 Red. masses --      1.0914                 1.0914                 1.0483
 Frc consts  --      6.5935                 6.5941                 7.8522
 IR Inten    --      4.4366                 0.3505                35.7657

                     79                     80                     81
                      A                      A                      A
 Frequencies --   3565.5981              3670.4487              3670.4498
 Red. masses --      1.0483                 1.0987                 1.0987
 Frc consts  --      7.8527                 8.7209                 8.7209
 IR Inten    --     60.0917                43.8845                34.3810

 - Thermochemistry -
 -------------------
 Temperature   298.150 Kelvin.  Pressure   1.00000 Atm.
 Atom     1 has atomic number  7 and mass  14.00307

 Molecular mass:   266.03775 amu.
 Principal axes and moments of inertia in atomic units:
                           1         2         3
     Eigenvalues --  2805.02070********************
           X            0.99966  -0.02622   0.00000
           Y            0.02622   0.99966   0.00000
           Z           -0.00000  -0.00000   1.00000
 This molecule is an asymmetric top.
 Rotational symmetry number  1.
 Warning -- assumption of classical behavior for rotation
           may cause significant error
 Rotational temperatures (Kelvin)      0.03088     0.00826     0.00808
 Rotational constants (GHZ):           0.64340     0.17213     0.16836
 Zero-point vibrational energy     588431.8 (Joules/Mol)
                                  140.63857 (Kcal/Mol)
 Warning -- explicit consideration of  26 degrees of freedom as
           vibrations may cause significant error
 Vibrational temperatures:     17.71    22.46    51.18   171.72   191.23
          (Kelvin)            243.75   248.69   324.85   340.68   385.02
                              429.37   477.70   478.35   493.95   503.67
                              566.75   566.95   635.38   636.19   693.35
                              704.95   735.25   746.70   810.73   854.54
                              866.26   904.46   991.57  1007.15  1029.69
                             1046.38  1134.84  1156.17  1190.89  1209.64
                             1277.20  1277.22  1294.49  1313.72  1356.03
                             1374.91  1380.08  1519.95  1520.46  1579.66
                             1587.69  1700.95  1704.16  1728.94  1749.74
                             1761.90  1856.31  1874.18  1905.11  1931.73
                             1945.42  1959.37  1963.34  2091.46  2098.27
                             2141.88  2218.93  2223.43  2312.02  2318.70
                             2366.73  2368.76  2398.73  2401.88  4369.80
                             4426.35  4573.98  4574.00  4595.82  4595.96
                             4607.27  4607.37  5130.01  5130.10  5280.96
                             5280.96

 Zero-point correction=                           0.224122 (Hartree/Particle)
 Thermal correction to Energy=                    0.239741
 Thermal correction to Enthalpy=                  0.240686
 Thermal correction to Gibbs Free Energy=         0.178372
 Sum of electronic and zero-point Energies=          -1532.328921
 Sum of electronic and thermal Energies=             -1532.313302
 Sum of electronic and thermal Enthalpies=           -1532.312357
 Sum of electronic and thermal Free Energies=        -1532.374671

                     E (Thermal)             CV                S
                      KCal/Mol        Cal/Mol-Kelvin    Cal/Mol-Kelvin
 Total                  150.440             60.660            131.151
 Electronic               0.000              0.000              0.000
 Translational            0.889              2.981             42.635
 Rotational               0.889              2.981             34.110
 Vibrational            148.663             54.698             54.406
 Vibration     1          0.593              1.987              7.598
 Vibration     2          0.593              1.986              7.126
 Vibration     3          0.594              1.982              5.492
 Vibration     4          0.609              1.933              3.111
 Vibration     5          0.613              1.920              2.904
 Vibration     6          0.625              1.880              2.442
 Vibration     7          0.626              1.876              2.404
 Vibration     8          0.650              1.802              1.912
 Vibration     9          0.656              1.784              1.827
 Vibration    10          0.673              1.733              1.612
 Vibration    11          0.692              1.677              1.426
 Vibration    12          0.714              1.612              1.250
 Vibration    13          0.714              1.611              1.248
 Vibration    14          0.722              1.589              1.197
 Vibration    15          0.727              1.575              1.166
 Vibration    16          0.761              1.483              0.985
 Vibration    17          0.761              1.483              0.985
 Vibration    18          0.801              1.379              0.822
 Vibration    19          0.802              1.378              0.820
 Vibration    20          0.838              1.290              0.705
 Vibration    21          0.846              1.272              0.684
 Vibration    22          0.866              1.226              0.631
 Vibration    23          0.874              1.208              0.612
 Vibration    24          0.919              1.110              0.517
 Vibration    25          0.952              1.045              0.460
 Vibration    26          0.960              1.027              0.446

 Optimization completed.
    -- Stationary point found.
 Normal termination of Gaussian 16 at Wed Jul 17 22:54:57 2024.
 Gaussian 16:  ES64L-G16RevA.03 25-Dec-2016

 ----------------------------------------------------------------------
 # TD(NStates=10, Root=1) B3LYP/6-31G** SCRF=(Solvent=water) volume pop
 =NPA density=current Geom=AllCheck Guess=Read
 ----------------------------------------------------------------------

 Structure from the checkpoint file:  "IBOFVQJTBBUKMU-UHFFFAOYSA-N_conf_1_2.chk"
 ----------------------------------
 IBOFVQJTBBUKMU-UHFFFAOYSA-N_conf_1
 ----------------------------------
 Charge =  0 Multiplicity = 1

                         Standard orientation:
 ---------------------------------------------------------------------
 Center     Atomic      Atomic             Coordinates (Angstroms)
 Number     Number       Type             X           Y           Z
 ---------------------------------------------------------------------
      1          7           0        4.809809   -0.913289   -0.896731
      2          6           0        3.623763   -0.711774   -0.203867
      3          6           0        3.121291   -1.679674    0.684841
      4          6           0        1.968466   -1.452757    1.431418
      5          6           0        1.253614   -0.253263    1.329509
      6          6           0       -0.000001    0.000095    2.151139
      7          6           0       -1.253618    0.253378    1.329488
      8          6           0       -1.968486    1.452870    1.431311
      9          6           0       -3.121314    1.679719    0.684719
     10          6           0       -3.623773    0.711749   -0.203921
     11          7           0       -4.809823    0.913198   -0.896799
     12          6           0       -2.892320   -0.489430   -0.295299
     13         17           0       -3.462267   -1.754289   -1.398405
     14          6           0       -1.738495   -0.717896    0.444712
     15          6           0        1.738505    0.717943    0.444666
     16          6           0        2.892327    0.489408   -0.295329
     17         17           0        3.462292    1.754182   -1.398523
     18          1           0        5.065847   -1.884472   -1.017356
     19          1           0        4.902756   -0.388979   -1.757066
     20          1           0        3.654467   -2.621348    0.783072
     21          1           0        1.618513   -2.228641    2.107017
     22          1           0        0.159873    0.861566    2.810435
     23          1           0       -0.159875   -0.861317    2.810513
     24          1           0       -1.618544    2.228807    2.106855
     25          1           0       -3.654501    2.621393    0.782882
     26          1           0       -5.065876    1.884369   -1.017492
     27          1           0       -4.902763    0.388825   -1.757096
     28          1           0       -1.212606   -1.659870    0.325256
     29          1           0        1.212629    1.659916    0.325143
 ---------------------------------------------------------------------

 SCF Done:  E(RB3LYP) =  -1532.55304293     A.U. after    1 cycles

 Excitation energies and oscillator strengths:

 Excited State   1:      Singlet-A      4.5437 eV  272.87 nm  f=0.1369  <S**2>=0.000
      66 -> 73         0.10267
      67 -> 72         0.13384
      68 -> 71        -0.21014
      69 -> 70         0.65050
 This state for optimization and/or second-order correction.
 Total Energy, E(TD-HF/TD-DFT) =  -1532.38606404
 Copying the excited state density for this state as the 1-particle RhoCI density.

 Excited State   2:      Singlet-A      4.5750 eV  271.00 nm  f=0.0601  <S**2>=0.000
      66 -> 72         0.13148
      67 -> 73         0.10523
      68 -> 70        -0.22566
      69 -> 71         0.64235

 Excited State   3:      Singlet-A      4.8434 eV  255.98 nm  f=0.0048  <S**2>=0.000
      68 -> 70         0.64481
      69 -> 71         0.25618

 Excited State   4:      Singlet-A      4.8552 eV  255.36 nm  f=0.0385  <S**2>=0.000
      68 -> 71         0.64358
      69 -> 70         0.22906
      69 -> 72        -0.14281

 Excited State   5:      Singlet-A      5.0370 eV  246.15 nm  f=0.5412  <S**2>=0.000
      68 -> 71         0.13706
      69 -> 72         0.67538

 Excited State   6:      Singlet-A      5.2249 eV  237.30 nm  f=0.0002  <S**2>=0.000
      68 -> 72         0.41507
      68 -> 74         0.23650
      69 -> 73         0.40544
      69 -> 75        -0.30734

 Excited State   7:      Singlet-A      5.3170 eV  233.19 nm  f=0.0437  <S**2>=0.000
      68 -> 73         0.17138
      68 -> 75        -0.37846
      69 -> 72        -0.12096
      69 -> 74         0.55245

 Excited State   8:      Singlet-A      5.3665 eV  231.03 nm  f=0.0071  <S**2>=0.000
      68 -> 72         0.40076
      68 -> 74        -0.30966
      69 -> 73         0.12093
      69 -> 75         0.47061

 Excited State   9:      Singlet-A      5.5168 eV  224.74 nm  f=0.0782  <S**2>=0.000
      66 -> 70        -0.16667
      67 -> 71        -0.19858
      68 -> 72        -0.35875
      68 -> 74        -0.11576
      69 -> 73         0.52009
      69 -> 75         0.10953

 Excited State  10:      Singlet-A      5.5998 eV  221.41 nm  f=0.2096  <S**2>=0.000
      66 -> 71         0.11357
      67 -> 70         0.11008
      68 -> 73         0.65636
      69 -> 74        -0.17040

 The electronic state is 1-A.
 Alpha  occ. eigenvalues -- -101.55454-101.55454 -14.34427 -14.34427 -10.24710
 Alpha  occ. eigenvalues --  -10.24710 -10.24198 -10.24198 -10.19846 -10.19845
 Alpha  occ. eigenvalues --  -10.19622 -10.19621 -10.19424 -10.19248 -10.19248
 Alpha  occ. eigenvalues --  -10.19146 -10.19146  -9.47052  -9.47052  -7.23420
 Alpha  occ. eigenvalues --   -7.23420  -7.22492  -7.22492  -7.22475  -7.22475
 Alpha  occ. eigenvalues --   -0.93115  -0.93091  -0.87177  -0.86905  -0.84420
 Alpha  occ. eigenvalues --   -0.83020  -0.77352  -0.73989  -0.73456  -0.72433
 Alpha  occ. eigenvalues --   -0.67501  -0.62204  -0.61406  -0.59415  -0.57414
 Alpha  occ. eigenvalues --   -0.52516  -0.52191  -0.52018  -0.51514  -0.47080
 Alpha  occ. eigenvalues --   -0.46423  -0.45390  -0.44226  -0.43824  -0.42985
 Alpha  occ. eigenvalues --   -0.42550  -0.42295  -0.40839  -0.40216  -0.38863
 Alpha  occ. eigenvalues --   -0.38384  -0.36096  -0.35230  -0.34260  -0.33867
 Alpha  occ. eigenvalues --   -0.33861  -0.32266  -0.31940  -0.31080  -0.30624
 Alpha  occ. eigenvalues --   -0.25036  -0.24852  -0.21258  -0.20346
 Alpha virt. eigenvalues --   -0.01192  -0.01105   0.00137   0.01301   0.02742
 Alpha virt. eigenvalues --    0.02763   0.09496   0.09719   0.10713   0.11482
 Alpha virt. eigenvalues --    0.13763   0.14463   0.14941   0.15364   0.16511

 Mulliken charges:
               1
     1  N   -0.626403
     2  C    0.293766
     3  C   -0.134810
     4  C   -0.178483
     5  C    0.141455
     6  C   -0.312381
     7  C    0.141455
     8  C   -0.178480
     9  C   -0.134807
    10  C    0.293767
    11  N   -0.626405
    12  C   -0.156502
    13  Cl  -0.058672
    14  C   -0.146298
    15  C   -0.146303
    16  C   -0.156503
    17  Cl  -0.058674
    18  H    0.302378
    19  H    0.301110
    20  H    0.098879
    21  H    0.090386
    22  H    0.127918
    23  H    0.127918
    24  H    0.090388
    25  H    0.098881
    26  H    0.302378
    27  H    0.301110
    28  H    0.101467
    29  H    0.101465
 Sum of Mulliken charges =  -0.00000

 Dipole moment (field-independent basis, Debye):
    X=             -0.0002    Y=             -0.0000    Z=             -1.5843  Tot=              1.5843
 Quadrupole moment (field-independent basis, Debye-Ang):
   XX=            -90.9104   YY=           -104.8354   ZZ=           -106.1816
   XY=            -27.5120   XZ=              0.0008   YZ=              0.0002

 Summary of Natural Population Analysis:

                                       Natural Population
                Natural  -----------------------------------------------
    Atom  No    Charge         Core      Valence    Rydberg      Total
 -----------------------------------------------------------------------
      N    1   -0.76569      1.99948     5.75513    0.01108     7.76569
      C    2    0.16362      1.99883     3.81920    0.01835     5.83638
      C    3   -0.30112      1.99905     4.28611    0.01596     6.30112
      C    4   -0.28272      1.99904     4.26764    0.01603     6.28272
      C    5    0.00974      1.99900     3.97466    0.01660     5.99026
      C    6   -0.49452      1.99921     4.48064    0.01468     6.49452
      C    7    0.00974      1.99900     3.97466    0.01660     5.99026
      C    8   -0.28271      1.99904     4.26764    0.01603     6.28271
      C    9   -0.30112      1.99905     4.28611    0.01596     6.30112
      C   10    0.16362      1.99883     3.81920    0.01835     5.83638
      N   11   -0.76569      1.99948     5.75513    0.01108     7.76569
      C   12   -0.10659      1.99851     4.08674    0.02135     6.10659
     Cl   13   -0.04169      9.99970     7.02199    0.02000    17.04169
      C   14   -0.29711      1.99889     4.27992    0.01830     6.29711
      C   15   -0.29712      1.99889     4.27993    0.01830     6.29712
      C   16   -0.10660      1.99851     4.08674    0.02135     6.10660
     Cl   17   -0.04169      9.99970     7.02199    0.02000    17.04169
      H   18    0.43010      0.00000     0.56749    0.00241     0.56990
      H   19    0.42907      0.00000     0.56799    0.00294     0.57093
      H   20    0.24663      0.00000     0.75178    0.00159     0.75337
      H   21    0.24360      0.00000     0.75481    0.00159     0.75640
      H   22    0.26547      0.00000     0.73224    0.00229     0.73453
      H   23    0.26547      0.00000     0.73224    0.00229     0.73453
      H   24    0.24360      0.00000     0.75481    0.00159     0.75640
      H   25    0.24663      0.00000     0.75178    0.00159     0.75337
      H   26    0.43010      0.00000     0.56749    0.00241     0.56990
      H   27    0.42907      0.00000     0.56799    0.00294     0.57093
      H   28    0.25396      0.00000     0.74360    0.00244     0.74604
      H   29    0.25396      0.00000     0.74360    0.00244     0.74604
 =======================================================================
   * Total *   -0.00000     49.98423    87.69923    0.31654   138.00000

 Normal termination of Gaussian 16 at Wed Jul 17 23:13:32 2024.
