 Gaussian 16, Revision A.03,

 -------------------------------------------------------
 # opt=CalcFc B3LYP/6-31G** SCRF=(Solvent=water) scf=xqc
 -------------------------------------------------------

 ----------------------------------
 IBOFVQJTBBUKMU-UHFFFAOYSA-N_conf_3
 ----------------------------------
 Symbolic Z-matrix:
 Charge =  0 Multiplicity = 1

 SCF Done:  E(RB3LYP) =  -1532.54788032     A.U. after   13 cycles
 SCF Done:  E(RB3LYP) =  -1532.55291935     A.U. after   13 cycles
 SCF Done:  E(RB3LYP) =  -1532.55288890     A.U. after   11 cycles
 SCF Done:  E(RB3LYP) =  -1532.52176113     A.U. after   11 cycles
 SCF Done:  E(RB3LYP) =  -1532.55142608     A.U. after   11 cycles
 SCF Done:  E(RB3LYP) =  -1532.55225710     A.U. after   11 cycles
 SCF Done:  E(RB3LYP) =  -1532.55077534     A.U. after   11 cycles
 SCF Done:  E(RB3LYP) =  -1532.55291994     A.U. after    5 cycles
 SCF Done:  E(RB3LYP) =  -1532.55316113     A.U. after   10 cycles
 SCF Done:  E(RB3LYP) =  -1532.55316851     A.U. after   10 cycles
 SCF Done:  E(RB3LYP) =  -1532.55317565     A.U. after    9 cycles
 SCF Done:  E(RB3LYP) =  -1532.55317580     A.U. after    7 cycles
 SCF Done:  E(RB3LYP) =  -1532.55317578     A.U. after    6 cycles
 Optimization completed.
    -- Stationary point found.
 Normal termination of Gaussian 16 at Wed Jul 17 23:27:47 2024.

 ----------------------------------------------------------------------
 # freq B3LYP/6-31G** SCRF=(Solvent=water) volume NMR pop=NPA density=c
 urrent Geom=AllCheck Guess=Read
 ----------------------------------------------------------------------

 Structure from the checkpoint file:  "IBOFVQJTBBUKMU-UHFFFAOYSA-N_conf_3_1.chk"
 ----------------------------------
 IBOFVQJTBBUKMU-UHFFFAOYSA-N_conf_3
 ----------------------------------
 Charge =  0 Multiplicity = 1

 SCF Done:  E(RB3LYP) =  -1532.55317578     A.U. after    1 cycles

      1  N    Isotropic =   201.4331   Anisotropy =    52.5441

      2  C    Isotropic =    55.1864   Anisotropy =   149.4468

      3  C    Isotropic =    80.0331   Anisotropy =   128.8832

      4  C    Isotropic =    67.7188   Anisotropy =   161.5750

      5  C    Isotropic =    63.8132   Anisotropy =   161.0945

      6  C    Isotropic =   149.8614   Anisotropy =    22.3694

      7  C    Isotropic =    63.7009   Anisotropy =   161.0021

      8  C    Isotropic =    67.7857   Anisotropy =   162.3596

      9  C    Isotropic =    80.0164   Anisotropy =   128.6642

     10  C    Isotropic =    55.1812   Anisotropy =   149.3059

     11  N    Isotropic =   201.4242   Anisotropy =    52.8188

     12  C    Isotropic =    70.2480   Anisotropy =    67.8619

     13  Cl   Isotropic =   789.7246   Anisotropy =   344.1550

     14  C    Isotropic =    66.7826   Anisotropy =   118.8977

     15  C    Isotropic =    66.6765   Anisotropy =   119.2040

     16  C    Isotropic =    70.2471   Anisotropy =    67.9523

     17  Cl   Isotropic =   789.5275   Anisotropy =   344.1978

     18  H    Isotropic =    28.1550   Anisotropy =     9.9678

     19  H    Isotropic =    28.5250   Anisotropy =    13.5363

     20  H    Isotropic =    25.0797   Anisotropy =     6.2455

     21  H    Isotropic =    24.8469   Anisotropy =     8.8156

     22  H    Isotropic =    28.2839   Anisotropy =     6.2388

     23  H    Isotropic =    28.2642   Anisotropy =     6.2404

     24  H    Isotropic =    24.8360   Anisotropy =     9.0047

     25  H    Isotropic =    25.0680   Anisotropy =     6.3207

     26  H    Isotropic =    28.1590   Anisotropy =     9.8674

     27  H    Isotropic =    28.5249   Anisotropy =    13.3518

     28  H    Isotropic =    24.6416   Anisotropy =     9.1638

     29  H    Isotropic =    24.6331   Anisotropy =     9.1402

  Exact polarizability: 317.939  37.593 200.651   0.103  -0.006 162.899
 Approx polarizability: 348.610  46.857 245.981  -0.993  -0.411 203.634

                      1                      2                      3
                      A                      A                      A
 Frequencies --     13.5211                14.9882                43.4128
 Red. masses --      8.1566                 7.2252                 5.1818
 Frc consts  --      0.0009                 0.0010                 0.0058
 IR Inten    --      1.0045                 1.2027                 1.0734

                      4                      5                      6
                      A                      A                      A
 Frequencies --    120.2592               143.8907               153.9900
 Red. masses --      4.6800                 4.5706                11.5995
 Frc consts  --      0.0399                 0.0558                 0.1621
 IR Inten    --      3.3851                 3.5446                 0.1789

                      7                      8                      9
                      A                      A                      A
 Frequencies --    175.8552               193.4866               240.7329
 Red. masses --      5.3108                 6.1379                 5.5794
 Frc consts  --      0.0968                 0.1354                 0.1905
 IR Inten    --      1.6642                 2.3536                 0.1423

                     10                     11                     12
                      A                      A                      A
 Frequencies --    276.0362               298.6072               323.4056
 Red. masses --      5.6721                 3.2526                 1.3020
 Frc consts  --      0.2546                 0.1709                 0.0802
 IR Inten    --      2.0661                 8.4431                34.1019

                     13                     14                     15
                      A                      A                      A
 Frequencies --    326.9210               337.0498               341.5141
 Red. masses --      1.2974                 2.2409                 2.4767
 Frc consts  --      0.0817                 0.1500                 0.1702
 IR Inten    --     16.0243                33.2717                 2.4708

                     16                     17                     18
                      A                      A                      A
 Frequencies --    392.8126               395.7919               447.0870
 Red. masses --      7.5428                 4.6998                 3.3313
 Frc consts  --      0.6857                 0.4338                 0.3923
 IR Inten    --      0.9808                 3.3522                 9.7964

                     19                     20                     21
                      A                      A                      A
 Frequencies --    447.9298               484.7323               485.5411
 Red. masses --      3.3256                 3.9903                 3.7692
 Frc consts  --      0.3931                 0.5524                 0.5235
 IR Inten    --     15.3641                 4.9984                 3.3544

                     22                     23                     24
                      A                      A                      A
 Frequencies --    512.2416               520.3459               560.1793
 Red. masses --      5.2466                 3.6238                 2.1408
 Frc consts  --      0.8111                 0.5781                 0.3958
 IR Inten    --     47.1490                39.2049               167.5610

                     25                     26                     27
                      A                      A                      A
 Frequencies --    582.5361               596.9297               639.4690
 Red. masses --      1.5421                 1.8611                 3.7342
 Frc consts  --      0.3083                 0.3907                 0.8997
 IR Inten    --    659.4130               224.3361                22.7962

                     28                     29                     30
                      A                      A                      A
 Frequencies --    691.7599               701.6036               716.6536
 Red. masses --      6.6451                 6.0083                 4.7606
 Frc consts  --      1.8735                 1.7425                 1.4406
 IR Inten    --     53.6833                 9.7758                12.7953

                     31                     32                     33
                      A                      A                      A
 Frequencies --    728.2971               780.5111               806.1768
 Red. masses --      5.1077                 2.9971                 3.7526
 Frc consts  --      1.5962                 1.0757                 1.4370
 IR Inten    --     14.9060                30.4082                19.9835

                     34                     35                     36
                      A                      A                      A
 Frequencies --    829.3364               840.3052               882.5556
 Red. masses --      1.4709                 1.6000                 3.2892
 Frc consts  --      0.5961                 0.6656                 1.5095
 IR Inten    --     49.1893                27.3929                10.7972

                     37                     38                     39
                      A                      A                      A
 Frequencies --    883.6376               903.8635               907.4901
 Red. masses --      1.5005                 3.2882                 1.7742
 Frc consts  --      0.6903                 1.5828                 0.8609
 IR Inten    --     11.1031                57.5570                 8.7468

                     40                     41                     42
                      A                      A                      A
 Frequencies --    945.5481               958.7379               959.9699
 Red. masses --      1.8888                 1.3178                 1.3937
 Frc consts  --      0.9949                 0.7137                 0.7567
 IR Inten    --     65.2048                 0.4654                 8.5094

                     43                     44                     45
                      A                      A                      A
 Frequencies --   1055.4349              1056.5362              1098.5586
 Red. masses --      2.9056                 2.7502                 1.5694
 Frc consts  --      1.9070                 1.8088                 1.1159
 IR Inten    --      2.6080                43.2131                 1.9711

                     46                     47                     48
                      A                      A                      A
 Frequencies --   1102.8110              1184.3695              1185.0756
 Red. masses --      1.5155                 1.1870                 1.1952
 Frc consts  --      1.0859                 0.9810                 0.9890
 IR Inten    --     45.7918                26.8425                16.7310

                     49                     50                     51
                      A                      A                      A
 Frequencies --   1201.4618              1217.4467              1226.3201
 Red. masses --      1.1539                 2.7081                 2.0488
 Frc consts  --      0.9814                 2.3649                 1.8154
 IR Inten    --      0.1666                 0.2632                25.8175

                     52                     53                     54
                      A                      A                      A
 Frequencies --   1292.8053              1299.7247              1327.9710
 Red. masses --      2.2569                 2.1827                 1.8736
 Frc consts  --      2.2225                 2.1724                 1.9467
 IR Inten    --     29.0181                31.2284                 9.0669

                     55                     56                     57
                      A                      A                      A
 Frequencies --   1341.8582              1342.3274              1365.6185
 Red. masses --      1.7084                 1.7492                 3.5989
 Frc consts  --      1.8124                 1.8570                 3.9544
 IR Inten    --     31.3043               118.4265               101.1638

                     58                     59                     60
                      A                      A                      A
 Frequencies --   1367.0249              1453.2426              1454.6131
 Red. masses --      4.5252                 3.3513                 2.9267
 Frc consts  --      4.9825                 4.1701                 3.6485
 IR Inten    --      5.0758                14.4609                14.7825

                     61                     62                     63
                      A                      A                      A
 Frequencies --   1486.8178              1542.7702              1547.1554
 Red. masses --      1.1182                 2.8864                 2.9064
 Frc consts  --      1.4564                 4.0477                 4.0989
 IR Inten    --     10.5241               322.4988                73.2139

                     64                     65                     66
                      A                      A                      A
 Frequencies --   1607.2709              1611.7227              1644.7978
 Red. masses --      6.4438                 6.1460                 1.4124
 Frc consts  --      9.8077                 9.4064                 2.2513
 IR Inten    --     24.3734                 2.0612                56.7345

                     67                     68                     69
                      A                      A                      A
 Frequencies --   1645.9747              1667.8438              1670.1640
 Red. masses --      1.3502                 3.1454                 3.5454
 Frc consts  --      2.1552                 5.1550                 5.8268
 IR Inten    --     40.7302               207.6268               106.8724

                     70                     71                     72
                      A                      A                      A
 Frequencies --   3037.1058              3076.9025              3179.3462
 Red. masses --      1.0600                 1.1038                 1.0870
 Frc consts  --      5.7607                 6.1570                 6.4740
 IR Inten    --     58.5694                27.3849                15.9744

                     73                     74                     75
                      A                      A                      A
 Frequencies --   3179.5779              3194.7267              3194.9147
 Red. masses --      1.0870                 1.0947                 1.0947
 Frc consts  --      6.4748                 6.5830                 6.5835
 IR Inten    --     15.5115                21.7853                28.3929

                     76                     77                     78
                      A                      A                      A
 Frequencies --   3200.8433              3201.2449              3565.5682
 Red. masses --      1.0916                 1.0915                 1.0483
 Frc consts  --      6.5891                 6.5907                 7.8522
 IR Inten    --      3.4429                 3.7837                55.5992

                     79                     80                     81
                      A                      A                      A
 Frequencies --   3565.9134              3670.6795              3670.9697
 Red. masses --      1.0483                 1.0988                 1.0987
 Frc consts  --      7.8537                 8.7226                 8.7237
 IR Inten    --     44.5957                39.1387                38.7929

 - Thermochemistry -
 -------------------
 Temperature   298.150 Kelvin.  Pressure   1.00000 Atm.
 Atom     1 has atomic number  7 and mass  14.00307

 Molecular mass:   266.03775 amu.
 Principal axes and moments of inertia in atomic units:
                           1         2         3
     Eigenvalues --  1872.94545********************
           X            0.99990  -0.01437   0.00087
           Y            0.01438   0.99989  -0.00255
           Z           -0.00083   0.00256   1.00000
 This molecule is an asymmetric top.
 Rotational symmetry number  1.
 Warning -- assumption of classical behavior for rotation
           may cause significant error
 Rotational temperatures (Kelvin)      0.04624     0.00673     0.00649
 Rotational constants (GHZ):           0.96358     0.14014     0.13525
 Zero-point vibrational energy     588211.1 (Joules/Mol)
                                  140.58584 (Kcal/Mol)
 Warning -- explicit consideration of  26 degrees of freedom as
           vibrations may cause significant error
 Vibrational temperatures:     19.45    21.56    62.46   173.03   207.03
          (Kelvin)            221.56   253.02   278.38   346.36   397.15
                              429.63   465.31   470.37   484.94   491.36
                              565.17   569.46   643.26   644.47   697.42
                              698.59   737.00   748.66   805.97   838.14
                              858.85   920.05   995.29  1009.45  1031.10
                             1047.86  1122.98  1159.91  1193.23  1209.01
                             1269.80  1271.36  1300.46  1305.68  1360.43
                             1379.41  1381.18  1518.54  1520.12  1580.58
                             1586.70  1704.04  1705.06  1728.64  1751.63
                             1764.40  1860.06  1870.01  1910.65  1930.63
                             1931.31  1964.82  1966.84  2090.89  2092.86
                             2139.20  2219.70  2226.01  2312.50  2318.91
                             2366.50  2368.19  2399.66  2402.99  4369.72
                             4426.98  4574.37  4574.70  4596.50  4596.77
                             4605.30  4605.88  5130.06  5130.55  5281.29
                             5281.71

 Zero-point correction=                           0.224038 (Hartree/Particle)
 Thermal correction to Energy=                    0.239700
 Thermal correction to Enthalpy=                  0.240644
 Thermal correction to Gibbs Free Energy=         0.178416
 Sum of electronic and zero-point Energies=          -1532.329138
 Sum of electronic and thermal Energies=             -1532.313476
 Sum of electronic and thermal Enthalpies=           -1532.312532
 Sum of electronic and thermal Free Energies=        -1532.374759

                     E (Thermal)             CV                S
                      KCal/Mol        Cal/Mol-Kelvin    Cal/Mol-Kelvin
 Total                  150.414             60.737            130.969
 Electronic               0.000              0.000              0.000
 Translational            0.889              2.981             42.635
 Rotational               0.889              2.981             34.131
 Vibrational            148.637             54.775             54.204
 Vibration     1          0.593              1.986              7.412
 Vibration     2          0.593              1.986              7.207
 Vibration     3          0.595              1.980              5.097
 Vibration     4          0.609              1.932              3.096
 Vibration     5          0.616              1.909              2.751
 Vibration     6          0.620              1.898              2.622
 Vibration     7          0.628              1.872              2.372
 Vibration     8          0.635              1.849              2.194
 Vibration     9          0.658              1.778              1.797
 Vibration    10          0.678              1.718              1.558
 Vibration    11          0.692              1.676              1.425
 Vibration    12          0.708              1.629              1.293
 Vibration    13          0.711              1.622              1.275
 Vibration    14          0.718              1.601              1.226
 Vibration    15          0.721              1.593              1.205
 Vibration    16          0.760              1.486              0.989
 Vibration    17          0.763              1.479              0.978
 Vibration    18          0.806              1.367              0.805
 Vibration    19          0.807              1.365              0.802
 Vibration    20          0.841              1.284              0.697
 Vibration    21          0.842              1.282              0.695
 Vibration    22          0.867              1.223              0.628
 Vibration    23          0.875              1.205              0.609
 Vibration    24          0.916              1.117              0.523
 Vibration    25          0.939              1.069              0.481
 Vibration    26          0.955              1.038              0.455

 Optimization completed.
    -- Stationary point found.
 Normal termination of Gaussian 16 at Wed Jul 17 23:45:45 2024.
 Gaussian 16:  ES64L-G16RevA.03 25-Dec-2016

 ----------------------------------------------------------------------
 # TD(NStates=10, Root=1) B3LYP/6-31G** SCRF=(Solvent=water) volume pop
 =NPA density=current Geom=AllCheck Guess=Read
 ----------------------------------------------------------------------

 Structure from the checkpoint file:  "IBOFVQJTBBUKMU-UHFFFAOYSA-N_conf_3_2.chk"
 ----------------------------------
 IBOFVQJTBBUKMU-UHFFFAOYSA-N_conf_3
 ----------------------------------
 Charge =  0 Multiplicity = 1

                         Standard orientation:
 ---------------------------------------------------------------------
 Center     Atomic      Atomic             Coordinates (Angstroms)
 Number     Number       Type             X           Y           Z
 ---------------------------------------------------------------------
      1          7           0        4.683759   -1.133043   -1.549632
      2          6           0        3.577873   -0.895728   -0.744991
      3          6           0        2.422690   -1.699992   -0.836309
      4          6           0        1.287037   -1.428561   -0.085526
      5          6           0        1.238529   -0.344333    0.804861
      6          6           0       -0.002935   -0.057435    1.633234
      7          6           0       -1.236844    0.279807    0.811586
      8          6           0       -1.261592    1.390145   -0.047003
      9          6           0       -2.391106    1.708064   -0.788765
     10          6           0       -3.565890    0.931007   -0.714902
     11          7           0       -4.711603    1.294164   -1.409406
     12          6           0       -3.523603   -0.179008    0.146251
     13         17           0       -4.958149   -1.209899    0.286971
     14          6           0       -2.391394   -0.502136    0.892294
     15          6           0        2.376217    0.459239    0.909330
     16          6           0        3.512946    0.185765    0.150435
     17         17           0        4.926878    1.239437    0.325957
     18          1           0        5.563808   -0.788240   -1.188650
     19          1           0        4.761057   -2.082266   -1.890510
     20          1           0        2.434727   -2.548252   -1.515405
     21          1           0        0.418994   -2.073568   -0.191325
     22          1           0       -0.229933   -0.924297    2.264985
     23          1           0        0.217173    0.769727    2.318600
     24          1           0       -0.377105    2.014259   -0.140658
     25          1           0       -2.384156    2.574490   -1.444640
     26          1           0       -5.353291    0.538449   -1.611373
     27          1           0       -4.545422    1.875340   -2.220461
     28          1           0       -2.419236   -1.372063    1.540877
     29          1           0        2.388343    1.305422    1.589071
 ---------------------------------------------------------------------

 SCF Done:  E(RB3LYP) =  -1532.55317578     A.U. after    1 cycles

 Excitation energies and oscillator strengths:

 Excited State   1:      Singlet-A      4.5213 eV  274.22 nm  f=0.2228  <S**2>=0.000
      68 -> 71         0.17044
      69 -> 70         0.66387
 This state for optimization and/or second-order correction.
 Total Energy, E(TD-HF/TD-DFT) =  -1532.38702179
 Copying the excited state density for this state as the 1-particle RhoCI density.

 Excited State   2:      Singlet-A      4.6021 eV  269.41 nm  f=0.0351  <S**2>=0.000
      68 -> 70         0.26918
      69 -> 71         0.62168

 Excited State   3:      Singlet-A      4.8483 eV  255.73 nm  f=0.0006  <S**2>=0.000
      68 -> 70         0.62854
      69 -> 71        -0.29873

 Excited State   4:      Singlet-A      4.9047 eV  252.79 nm  f=0.0183  <S**2>=0.000
      68 -> 71         0.62685
      69 -> 70        -0.18473
      69 -> 72        -0.23550

 Excited State   5:      Singlet-A      4.9998 eV  247.98 nm  f=0.4106  <S**2>=0.000
      68 -> 71         0.22808
      68 -> 73         0.10642
      69 -> 72         0.62747
      69 -> 74         0.13643

 Excited State   6:      Singlet-A      5.1581 eV  240.37 nm  f=0.0010  <S**2>=0.000
      68 -> 72         0.39317
      68 -> 74         0.22466
      69 -> 73         0.45123
      69 -> 75        -0.27949

 Excited State   7:      Singlet-A      5.3159 eV  233.23 nm  f=0.1031  <S**2>=0.000
      68 -> 73         0.22902
      68 -> 75        -0.31866
      69 -> 72        -0.20199
      69 -> 74         0.54124

 Excited State   8:      Singlet-A      5.4062 eV  229.34 nm  f=0.0336  <S**2>=0.000
      68 -> 72         0.43772
      68 -> 74        -0.29915
      69 -> 75         0.45082

 Excited State   9:      Singlet-A      5.4959 eV  225.59 nm  f=0.1356  <S**2>=0.000
      66 -> 70         0.12035
      66 -> 71         0.11666
      67 -> 70         0.10649
      67 -> 71        -0.11068
      68 -> 72        -0.34154
      68 -> 74        -0.16990
      69 -> 73         0.49816
      69 -> 75         0.19569

 Excited State  10:      Singlet-A      5.5776 eV  222.29 nm  f=0.1501  <S**2>=0.000
      68 -> 73         0.63378
      68 -> 75         0.11602
      69 -> 74        -0.22409

 The electronic state is 1-A.
 Alpha  occ. eigenvalues -- -101.55443-101.55439 -14.34448 -14.34437 -10.24593
 Alpha  occ. eigenvalues --  -10.24586 -10.24202 -10.24188 -10.19883 -10.19875
 Alpha  occ. eigenvalues --  -10.19631 -10.19629 -10.19440 -10.19278 -10.19265
 Alpha  occ. eigenvalues --  -10.19204 -10.19188  -9.47038  -9.47034  -7.23406
 Alpha  occ. eigenvalues --   -7.23401  -7.22478  -7.22474  -7.22463  -7.22458
 Alpha  occ. eigenvalues --   -0.93118  -0.93094  -0.87141  -0.86895  -0.84450
 Alpha  occ. eigenvalues --   -0.82995  -0.77334  -0.74243  -0.73443  -0.72191
 Alpha  occ. eigenvalues --   -0.67525  -0.61914  -0.61644  -0.59844  -0.57004
 Alpha  occ. eigenvalues --   -0.52412  -0.52252  -0.52087  -0.51514  -0.47202
 Alpha  occ. eigenvalues --   -0.46079  -0.45294  -0.44294  -0.43834  -0.43633
 Alpha  occ. eigenvalues --   -0.42554  -0.42444  -0.40640  -0.40507  -0.38548
 Alpha  occ. eigenvalues --   -0.37623  -0.36488  -0.35182  -0.34587  -0.33864
 Alpha  occ. eigenvalues --   -0.33814  -0.32198  -0.31825  -0.31213  -0.30539
 Alpha  occ. eigenvalues --   -0.24971  -0.24960  -0.21279  -0.20306
 Alpha virt. eigenvalues --   -0.01246  -0.00966   0.00110   0.01192   0.02703
 Alpha virt. eigenvalues --    0.02939   0.09524   0.09593   0.11217   0.12230
 Alpha virt. eigenvalues --    0.12835   0.13457   0.15100   0.15377   0.16387

 Mulliken charges:
               1
     1  N   -0.627157
     2  C    0.293244
     3  C   -0.147022
     4  C   -0.148579
     5  C    0.138325
     6  C   -0.309899
     7  C    0.138493
     8  C   -0.145914
     9  C   -0.145364
    10  C    0.293245
    11  N   -0.628459
    12  C   -0.146300
    13  Cl  -0.049137
    14  C   -0.177142
    15  C   -0.178568
    16  C   -0.147999
    17  Cl  -0.050483
    18  H    0.301045
    19  H    0.301830
    20  H    0.095201
    21  H    0.092072
    22  H    0.127808
    23  H    0.128279
    24  H    0.093133
    25  H    0.096936
    26  H    0.300657
    27  H    0.301461
    28  H    0.100666
    29  H    0.099624
 Sum of Mulliken charges =  -0.00000

 Dipole moment (field-independent basis, Debye):
    X=              0.7435    Y=             -1.2726    Z=             -3.4566  Tot=              3.7578
 Quadrupole moment (field-independent basis, Debye-Ang):
   XX=            -95.1988   YY=           -105.9905   ZZ=           -104.2865
   XY=            -18.4778   XZ=              7.0944   YZ=             -0.0899

 Summary of Natural Population Analysis:

                                       Natural Population
                Natural  -----------------------------------------------
    Atom  No    Charge         Core      Valence    Rydberg      Total
 -----------------------------------------------------------------------
      N    1   -0.76678      1.99948     5.75619    0.01111     7.76678
      C    2    0.16387      1.99882     3.81905    0.01825     5.83613
      C    3   -0.32804      1.99905     4.31266    0.01633     6.32804
      C    4   -0.25392      1.99904     4.23956    0.01532     6.25392
      C    5    0.00534      1.99900     3.97866    0.01699     5.99466
      C    6   -0.49207      1.99921     4.47822    0.01464     6.49207
      C    7    0.00395      1.99900     3.98010    0.01694     5.99605
      C    8   -0.24962      1.99904     4.23546    0.01513     6.24962
      C    9   -0.32470      1.99905     4.30946    0.01618     6.32470
      C   10    0.16333      1.99882     3.81961    0.01824     5.83667
      N   11   -0.76945      1.99948     5.75882    0.01115     7.76945
      C   12   -0.08294      1.99851     4.06324    0.02120     6.08294
     Cl   13   -0.03293      9.99970     7.01336    0.01987    17.03293
      C   14   -0.32438      1.99890     4.30680    0.01869     6.32438
      C   15   -0.32824      1.99890     4.31034    0.01900     6.32824
      C   16   -0.08541      1.99851     4.06563    0.02128     6.08541
     Cl   17   -0.03378      9.99970     7.01414    0.01994    17.03378
      H   18    0.42905      0.00000     0.56812    0.00283     0.57095
      H   19    0.42982      0.00000     0.56764    0.00254     0.57018
      H   20    0.24540      0.00000     0.75305    0.00155     0.75460
      H   21    0.24514      0.00000     0.75287    0.00199     0.75486
      H   22    0.26547      0.00000     0.73248    0.00205     0.73453
      H   23    0.26537      0.00000     0.73265    0.00198     0.73463
      H   24    0.24584      0.00000     0.75204    0.00212     0.75416
      H   25    0.24623      0.00000     0.75221    0.00156     0.75377
      H   26    0.42897      0.00000     0.56820    0.00283     0.57103
      H   27    0.42960      0.00000     0.56784    0.00255     0.57040
      H   28    0.25268      0.00000     0.74556    0.00175     0.74732
      H   29    0.25219      0.00000     0.74605    0.00176     0.74781
 =======================================================================
   * Total *    0.00000     49.98421    87.70003    0.31576   138.00000

 Normal termination of Gaussian 16 at Thu Jul 18 00:03:21 2024.
